<?xml version="1.0"?>
<VTKFile type="UnstructuredGrid" version="0.1" byte_order="LittleEndian">
  <UnstructuredGrid>
    <Piece NumberOfCells="796" NumberOfPoints="419">
      <PointData Scalars="pf">
        <DataArray type="Float32" Name="pf" NumberOfComponents="1" format="ascii">
          0 0 0 0 0 0 0 0 0 0 0 0
          0 0 0 0 0 0 0 0 0 0 0 0
          0 0 0 0 0 0 0 0 0 0 0 0
          0 0 0 0 0 0 0 0 0 0 0 0
          0 0 0 0 0 0 0 0 0 0 1 0
          0 0 0 0 0 0 0 0 0 0 0 0
          0 0 0 0 0 0 0 0 0 0 0 0
          0 0 0 0 0 0 0 0 0 0 0 0
          0 0 0 0 0 0 0 0 0 0 0 0
          0 0 0 0 0 0 0 0 0 0 0 0
          0 0 0 0 0 0 0 0 0 0 0 0
          0 0 0 0 0 0 0 0 0 0 0 0
          0 0 0 0 0 0 0 0 0 0 0 0
          0 0 0 0 0 0 0 0 0 0 0 0
          0 0 0 0 0 0 0 0 0 0 0 0
          0 0 1 1 1 1 0 0 0 0 0 0
          0 0 0 0 0 0 0 0 0 0 0 0
          0 0 0 0 0 0 0 0 0 0 0 0
          0 0 0 0 0 0 0 0 0 0 0 0
          0 0 0 0 0 0 0 0 1 0 1 0
          0 0 0 0 0 0 0 0 0 0 0 0
          0 0 0 0 0 0 0 0 0 0 0 0
          0 0 0 0 0 0 0 0 0 0 0 0
          0 0 0 0 0 0 0 0 0 0 0 0
          0 0 0 0 0 0 0 0 0 0 0 0
          0 0 0 0 0 0 0 0 0 0 0 0
          0 0 0 0 0 0 1 0 1 0 0 0
          0 0 0 0 0 0 1 0 0 0 0 0
          0 0 0 0 0 0 0 0 0 0 0 0
          0 0 0 0 0 0 0 0 0 0 0 0
          0 0 0 0 0 0 0 0 0 0 0 0
          0 0 0 0 0 0 0 0 0 0 0 0
          0 0 0 0 0 0 0 0 0 0 0 0
          0 0 0 0 0 0 0 0 0 0 0 0
          0 0 0 0 0 0 0 0 0 0 0
        </DataArray>
      </PointData>
      <Points>
        <DataArray type="Float32" Name="Coordinates" NumberOfComponents="3" format="ascii">
          0.215544 0.735053 0 0.21208 0.639229 0 0.267584 0.661786 0 0.784456 0.264947 0
          0.78792 0.360771 0 0.732416 0.338214 0 0.407866 0.407886 0 0.395197 0.436082 0
          0.368068 0.424209 0 0.592134 0.592114 0 0.604803 0.563918 0 0.631931 0.575791 0
          0.569379 0.753513 0 0.534338 0.711161 0 0.580148 0.686081 0 0.430621 0.246487 0
          0.465661 0.288839 0 0.419852 0.313919 0 0.545 0.540311 0 0.573621 0.555828 0
          0.541943 0.566065 0 0.455 0.459689 0 0.426379 0.444172 0 0.458057 0.433935 0
          0.303321 0.726649 0 0.375952 0.73067 0 0.333462 0.787805 0 0.696679 0.273351 0
          0.624048 0.26933 0 0.666538 0.212195 0 0.551024 0.645076 0 0.593741 0.632559 0
          0.448976 0.354924 0 0.406259 0.367441 0 0.463414 0.479395 0 0.446947 0.477544 0
          0.536586 0.520605 0 0.553053 0.522456 0 0.354297 0.688927 0 0.645703 0.311073 0
          0.263405 0.788397 0 0.736595 0.211603 0 0.343383 0.611816 0 0.372653 0.64878 0
          0.319309 0.665295 0 0.656617 0.388184 0 0.627347 0.35122 0 0.680691 0.334705 0
          0.737966 0.66225 0 0.819789 0.674845 0 0.764165 0.735228 0 0.262034 0.33775 0
          0.180211 0.325155 0 0.235835 0.264772 0 0.557484 0.485414 0 0.55 0.5 0
          0.545785 0.489953 0 0.442516 0.514585 0 0.45 0.5 0 0.454215 0.510047 0
          0.643485 0.724228 0 0.356515 0.275772 0 0.143317 0.691579 0 0.856683 0.308421 0
          0.158842 0.598672 0 0.841158 0.401328 0 0.0906214 0.402526 0 0 0.4 0
          0.0993209 0.325017 0 0.909379 0.597474 0 1 0.6 0 0.900679 0.674983 0
          0.179827 0.832785 0 0.820173 0.167215 0 0.192748 0.454458 0 0.225895 0.502058 0
          0.175573 0.52658 0 0.807252 0.545542 0 0.774105 0.497942 0 0.824427 0.47342 0
          1 1 0 0.9 1 0 0.905619 0.905619 0 0 0 0
          0.1 0 0 0.0943812 0.0943812 0 1 0.9 0 0 0.1 0
          0.777728 0.609566 0 0.222272 0.390434 0 0.283967 0.498389 0 0.261251 0.446797 0
          0.312484 0.465213 0 0.716033 0.501611 0 0.738749 0.553203 0 0.687516 0.534787 0
          0.495 0.533782 0 0.485462 0.555254 0 0.477696 0.537703 0 0.505 0.466218 0
          0.514538 0.444746 0 0.522304 0.462297 0 0.298007 0.612217 0 0.701993 0.387783 0
          0.128058 0.461493 0 0.871942 0.538507 0 0.287125 0.855311 0 0.712875 0.144689 0
          0.570992 0.923701 0 0.498187 0.861495 0 0.567665 0.832779 0 0.429008 0.0762987 0
          0.501813 0.138505 0 0.432335 0.167221 0 0.534941 0.487264 0 0.5465 0.477087 0
          0.465059 0.512736 0 0.4535 0.522913 0 0.571575 0.160756 0 0.646801 0.147963 0
          0.595028 0.216044 0 0.428425 0.839244 0 0.353199 0.852037 0 0.404972 0.783956 0
          0.518413 0.420369 0 0.545 0.40056 0 0.54285 0.424966 0 0.481587 0.579631 0
          0.455 0.59944 0 0.45715 0.575034 0 0.8 1 0 0.7 1 0
          0.751195 0.897043 0 0.2 0 0 0.3 0 0 0.248805 0.102957 0
          0 0.3 0 1 0.7 0 0.224897 0.564054 0 0.257392 0.607996 0
          0.775103 0.435946 0 0.742608 0.392004 0 0.422205 0.645911 0 0.404498 0.621005 0
          0.577795 0.354089 0 0.595502 0.378995 0 0.439782 0.465994 0 0.560218 0.534006 0
          0.533719 0.469564 0 0.466281 0.530436 0 0.557601 0.612992 0 0.442399 0.387008 0
          0.623759 0.861682 0 0.376241 0.138318 0 0.847968 0.830681 0 0.764046 0.807582 0
          0.152032 0.169319 0 0.235954 0.192418 0 0.525 0.479833 0 0.475 0.520167 0
          0.0765905 0.625328 0 0.92341 0.374672 0 0.0971464 0.773483 0 0 0.8 0
          0.0751498 0.702312 0 0.902854 0.226517 0 1 0.2 0 0.92485 0.297688 0
          0.605338 0.513055 0 0.637011 0.539537 0 0.594967 0.537362 0 0.394662 0.486945 0
          0.362989 0.460463 0 0.405033 0.462638 0 0.640291 0.657343 0 0.359709 0.342657 0
          0.474215 0.466265 0 0.525785 0.533735 0 0.160429 0.768472 0 0.839571 0.231528 0
          0.638243 0.61098 0 0.361757 0.38902 0 0.54 0.5 0 0.53 0.5 0
          0.46 0.5 0 0.47 0.5 0 0.471512 0.403545 0 0.485 0.432304 0
          0.528488 0.596455 0 0.515 0.567696 0 0.467593 0.63664 0 0.502201 0.616079 0
          0.508942 0.651266 0 0.532407 0.36336 0 0.497799 0.383921 0 0.491058 0.348734 0
          0.316156 0.423095 0 0.683844 0.576905 0 0.112594 0.534735 0 0.057692 0.461113 0
          0.887406 0.465265 0 0.942308 0.538887 0 0.250665 0.922041 0 0.749335 0.0779587 0
          0.500908 0.548677 0 0.499092 0.451323 0 0.466434 0.549208 0 0.533566 0.450792 0
          0.64625 0.0744561 0 0.35375 0.925544 0 0.0623925 0.837369 0 0.937607 0.162631 0
          0.7 0 0 0.3 1 0 0.52024 0.39553 0 0.47976 0.60447 0
          0.350745 0.563338 0 0.370398 0.59231 0 0.649255 0.436662 0 0.629602 0.40769 0
          0.0462302 0.55 0 0.95377 0.45 0 0.56812 0.431208 0 0.574082 0.403382 0
          0.594776 0.433471 0 0.43188 0.568792 0 0.425918 0.596618 0 0.405224 0.566529 0
          0 0.7 0 1 0.3 0 0.831252 0.923992 0 0.168748 0.0760077 0
          0.0949888 0.904883 0 0.905011 0.095117 0 0.439162 0.922057 0 0.560838 0.0779428 0
          0.52 0.5 0 0.525089 0.511747 0 0.48 0.5 0 0.474911 0.488253 0
          0.600274 0.484395 0 0.574127 0.483747 0 0.579328 0.465968 0 0.399726 0.515605 0
          0.425873 0.516253 0 0.420672 0.534032 0 0.427277 0.476716 0 0.572723 0.523284 0
          0.562195 0.496069 0 0.437805 0.503931 0 0.8 0 0 0.9 0 0
          0.829206 0.0787426 0 0.2 1 0 0.1 1 0 0.170794 0.921257 0
          0.535601 0.675456 0 0.464398 0.324544 0 0.661799 0.92196 0 0.338201 0.0780399 0
          0.312815 0.532257 0 0.318209 0.58112 0 0.687185 0.467743 0 0.681791 0.41888 0
          0.338058 0.497323 0 0.661942 0.502677 0 0.374056 0.517421 0 0.625944 0.482579 0
          0.379808 0.568084 0 0.620192 0.431916 0 0.512288 0.79727 0 0.460641 0.754459 0
          0.515892 0.747921 0 0.487712 0.20273 0 0.539359 0.245541 0 0.484108 0.252079 0
          0.284391 0.562694 0 0.715609 0.437306 0 0.463417 0.800232 0 0.536583 0.199768 0
          0.421822 0.703337 0 0.400251 0.67324 0 0.578178 0.296663 0 0.599749 0.32676 0
          1 0.8 0 0.913133 0.754657 0 0 0.2 0 0.0868669 0.245343 0
          0.698841 0.783374 0 0.704597 0.72005 0 0.301159 0.216626 0 0.295403 0.27995 0
          0.436564 0.619845 0 0.563436 0.380155 0 0.375832 0.616681 0 0.624168 0.383319 0
          0.55845 0.58517 0 0.44155 0.41483 0 0.404861 0.542258 0 0.38017 0.542805 0
          0.595139 0.457742 0 0.61983 0.457195 0 0.454428 0.490003 0 0.545572 0.509997 0
          0.440809 0.67457 0 0.559191 0.32543 0 0.685134 0.676883 0 0.314866 0.323117 0
          0.631386 0.799013 0 0.368615 0.200987 0 0.367441 0.490538 0 0.632559 0.509462 0
          0.515 0.522441 0 0.504754 0.511437 0 0.515 0.508826 0 0.485 0.477559 0
          0.495246 0.488563 0 0.485 0.491174 0 0.49 0.5 0 0.485087 0.510827 0
          0.51 0.5 0 0.514913 0.489173 0 0.516234 0.546315 0 0.483766 0.453685 0
          0 0.6 0 1 0.4 0 0.490893 0.715822 0 0.509107 0.284178 0
          0.604713 0.404776 0 0.395287 0.595224 0 0.5 0.5 0 0.548328 0.459324 0
          0.451672 0.540676 0 0.47493 0.676737 0 0.52507 0.323263 0 0.6 1 0
          0.4 0 0 0.689804 0.630235 0 0.310196 0.369765 0 0.836661 0.745538 0
          0.163339 0.254462 0 0.513759 0.474849 0 0.505045 0.483861 0 0.497222 0.475207 0
          0.486241 0.525151 0 0.494955 0.516139 0 0.502778 0.524793 0 0.685437 0.851048 0
          0.314563 0.148952 0 0.564464 0.452318 0 0.549931 0.44105 0 0.435536 0.547682 0
          0.450069 0.55895 0 0.256822 0.532512 0 0.743178 0.467488 0 0.525 0.491174 0
          0.475 0.508826 0 0.573005 0.502912 0 0.426995 0.497088 0 0.561017 0.470575 0
          0.438983 0.529425 0 0.5 0 0 0.5 1 0 0.4 1 0
          0.6 0 0 0.497812 0.570559 0 0.502188 0.429441 0 0.497371 0.0679902 0
          0.502629 0.93201 0 0.495108 0.409934 0 0.504892 0.590066 0 0.47059 0.564391 0
          0.52941 0.435609 0 0.158069 0.391035 0 0.841931 0.608965 0 0.930171 0.833997 0
          0.0698285 0.166003 0 0.468902 0.449067 0 0.531098 0.550933 0 0.60577 0.115746 0
          0.39423 0.884254 0 0.535 0.509056 0 0.465 0.490944 0 0.586772 0.496306 0
          0.413228 0.503694 0 0.528461 0.623739 0 0.471539 0.376261 0 0.346767 0.526402 0
          0.653233 0.473598 0 0 0.5 0 1 0.5 0 0.27212 0.395495 0
          0.72788 0.604505 0 0.505029 0.49237 0 0.494971 0.50763 0 0.580795 0.447318 0
          0.419205 0.552682 0 0.490095 0.465403 0 0.509905 0.534597 0 0.450723 0.711282 0
          0.419111 0.739691 0 0.549277 0.288718 0 0.580889 0.260309 0 1 0.1 0
          0 0.9 0 0.558079 0.414864 0 0.441921 0.585136 0 0.559425 0.50912 0
          0.440575 0.49088 0 0.525372 0.521989 0 0.474628 0.478011 0 0.413439 0.485416 0
          0.586561 0.514584 0 0.0487472 0.951221 0 0.951253 0.0487793 0 0 1 0
          1 0 0 0.507672 0.686604 0 0.492328 0.313396 0
        </DataArray>
      </Points>
      <Cells>
        <DataArray type="Int32" Name="connectivity" NumberOfComponents="1" format="ascii">
          0 1 2 3 4 5 6 7 8 9 10 11
          12 13 14 15 16 17 18 19 20 21 22 23
          24 25 26 27 28 29 30 31 14 32 33 17
          21 34 35 18 36 37 25 24 38 28 27 39
          24 40 0 27 41 3 42 43 44 45 46 47
          48 49 50 51 52 53 40 24 26 41 27 29
          54 55 56 57 58 59 12 14 60 15 17 61
          62 1 0 63 4 3 1 62 64 4 63 65
          66 67 68 69 70 71 40 72 0 41 73 3
          74 75 76 77 78 79 80 81 82 83 84 85
          86 80 82 87 83 85 49 48 88 52 51 89
          90 91 92 93 94 95 96 97 98 99 100 101
          102 42 44 103 45 47 104 74 76 105 77 79
          72 40 106 73 41 107 108 109 110 111 112 113
          114 115 56 116 117 59 118 119 120 121 122 123
          124 125 126 127 128 129 130 131 132 133 134 135
          119 29 120 122 26 123 67 136 68 70 137 71
          1 138 139 4 140 141 142 43 143 144 46 145
          22 21 146 19 18 147 115 114 148 117 116 149
          31 30 150 33 32 151 152 108 110 153 111 113
          102 2 139 103 5 141 138 1 64 140 4 65
          154 132 155 156 135 157 114 158 148 116 159 149
          64 62 160 65 63 161 162 163 164 165 166 167
          168 169 170 171 172 173 115 54 56 117 57 59
          14 174 60 17 175 61 34 21 176 36 18 177
          0 72 178 3 73 179 180 31 9 181 33 6
          180 9 11 181 6 8 182 183 114 184 185 116
          186 187 23 188 189 20 190 191 192 193 194 195
          91 196 92 94 197 95 104 198 199 105 200 201
          202 72 106 203 73 107 97 96 204 100 99 205
          169 197 11 172 196 8 97 206 98 100 207 101
          208 203 107 209 202 106 119 208 107 122 209 106
          162 72 210 165 73 211 31 174 14 33 175 17
          169 10 170 172 7 173 24 0 2 27 3 5
          174 31 180 175 33 181 212 203 208 213 202 209
          193 125 214 190 128 215 42 216 217 45 218 219
          199 198 220 201 200 221 222 223 224 225 226 227
          163 228 164 166 229 167 132 154 230 135 156 231
          198 64 160 200 65 161 72 232 210 73 233 211
          121 109 234 118 112 235 236 183 237 238 185 239
          240 241 242 243 244 245 246 22 146 247 19 147
          55 54 248 58 57 249 2 1 139 5 4 141
          250 251 252 253 254 255 197 169 95 196 172 92
          30 14 256 32 17 257 212 250 203 213 253 202
          132 131 258 135 134 259 251 233 252 254 232 255
          260 216 261 262 218 263 42 102 261 45 103 263
          264 90 92 265 93 95 266 171 243 267 168 240
          125 124 214 128 127 215 216 268 217 218 269 219
          270 271 272 273 274 275 102 276 261 103 277 263
          130 132 230 133 135 231 109 121 278 112 118 279
          280 25 281 282 28 283 137 284 285 136 286 287
          90 264 260 93 265 262 288 60 289 290 61 291
          128 190 292 125 193 293 43 42 294 46 45 295
          143 43 294 145 46 295 296 19 9 297 22 6
          298 227 299 300 224 301 35 34 302 37 36 303
          43 142 281 46 144 283 142 190 304 144 193 305
          48 50 289 51 53 291 60 174 306 61 175 307
          60 288 308 61 290 309 91 90 75 94 93 78
          216 42 261 218 45 263 172 171 310 169 168 311
          19 296 20 22 297 23 191 190 215 194 193 214
          312 313 314 315 316 317 54 241 248 57 244 249
          238 318 319 236 320 321 322 189 204 323 187 205
          228 324 160 229 325 161 271 326 272 274 327 275
          223 328 224 226 329 227 14 13 256 17 16 257
          193 144 293 190 142 292 330 318 316 330 320 313
          207 331 148 206 332 149 198 104 76 200 105 79
          162 62 178 165 63 179 72 162 178 73 165 179
          333 190 192 334 193 195 335 108 258 336 111 259
          25 38 281 28 39 283 270 109 278 273 112 279
          174 180 337 175 181 338 155 50 339 157 53 340
          228 160 164 229 161 167 331 115 148 332 117 149
          341 342 343 344 345 346 108 152 258 111 153 259
          240 300 301 243 298 299 26 25 123 29 28 120
          154 155 339 156 157 340 101 158 341 98 159 344
          288 155 347 290 157 348 222 349 350 225 351 352
          260 276 353 262 277 354 137 285 71 136 287 68
          271 270 278 274 273 279 316 315 343 313 312 346
          198 160 220 200 161 221 19 10 9 22 7 6
          114 183 355 116 185 356 241 357 248 244 358 249
          203 250 252 202 253 255 101 207 148 98 206 149
          190 333 304 193 334 305 50 288 289 53 290 291
          288 50 155 290 53 157 131 335 258 134 336 259
          62 162 164 63 165 167 285 154 339 287 156 340
          158 321 341 159 319 344 241 54 359 244 57 360
          336 361 111 335 362 108 72 202 255 73 203 252
          297 186 23 296 188 20 362 363 234 361 364 235
          12 270 272 15 273 275 197 180 11 196 181 8
          276 260 261 277 262 263 182 114 56 184 116 59
          204 189 365 205 187 366 239 315 317 237 312 314
          111 361 367 108 362 368 84 133 231 81 130 230
          109 270 110 112 273 113 276 102 139 277 103 141
          300 240 242 298 243 245 187 186 369 189 188 370
          85 84 231 82 81 230 329 268 227 328 269 224
          22 246 173 19 247 170 206 97 371 207 100 372
          74 91 75 77 94 78 74 104 373 77 105 374
          241 359 242 244 360 245 62 0 178 63 3 179
          154 285 375 156 287 376 187 323 377 189 322 378
          158 101 148 159 98 149 155 132 347 157 135 348
          180 197 337 181 196 338 285 284 375 287 286 376
          49 88 374 52 89 373 119 118 379 122 121 380
          126 222 350 129 225 352 90 260 353 93 262 354
          268 216 299 269 218 301 321 342 341 319 345 344
          350 207 372 352 206 371 308 288 347 309 290 348
          238 239 317 236 237 314 12 60 308 15 61 309
          227 268 299 224 269 301 276 138 353 277 140 354
          264 172 310 265 169 311 13 12 272 16 15 275
          54 115 359 57 117 360 31 150 9 33 151 6
          237 183 381 239 185 382 21 23 377 18 20 378
          319 159 356 321 158 355 102 44 2 103 47 5
          289 60 306 291 61 307 241 240 383 244 243 384
          342 316 343 345 313 346 232 72 255 233 73 252
          192 191 385 195 194 386 138 276 139 140 277 141
          99 101 341 96 98 344 18 37 147 21 35 146
          270 12 110 273 15 113 154 82 230 156 85 231
          138 64 76 140 65 79 284 86 375 286 87 376
          71 49 374 68 52 373 91 74 89 94 77 88
          49 71 339 52 68 340 171 266 310 168 267 311
          40 26 106 41 29 107 29 119 107 26 122 106
          183 236 355 185 238 356 172 264 92 169 265 95
          55 182 56 58 184 59 24 44 38 27 47 39
          86 82 375 87 85 376 299 216 387 301 218 388
          236 321 355 238 319 356 389 199 220 390 201 221
          183 182 381 185 184 382 23 187 377 20 189 378
          99 341 343 96 344 346 36 381 303 34 382 302
          318 238 317 320 236 314 7 172 8 10 169 11
          364 212 208 363 213 209 196 91 391 197 94 392
          70 69 201 67 66 199 118 235 379 121 234 380
          321 320 393 319 318 394 124 369 214 127 370 215
          316 318 317 313 320 314 330 316 393 330 313 394
          349 222 395 351 225 396 362 234 368 361 235 367
          205 99 397 204 96 398 243 171 384 240 168 383
          50 49 339 53 52 340 280 399 400 282 401 402
          152 308 347 153 309 348 75 90 353 78 93 354
          75 138 76 78 140 79 351 332 352 349 331 350
          69 71 374 66 68 373 267 240 301 266 243 299
          233 403 211 232 404 210 97 204 365 100 205 366
          159 116 356 158 114 355 105 69 374 104 66 373
          124 126 372 127 129 371 160 62 164 161 63 167
          44 43 38 47 46 39 150 296 9 151 297 6
          399 271 400 401 274 402 163 162 210 166 165 211
          44 24 2 47 27 5 71 285 339 68 287 340
          222 126 405 225 129 406 126 350 372 129 352 371
          138 75 353 140 78 354 10 19 170 7 22 173
          123 271 278 120 274 279 404 163 210 403 166 211
          30 192 385 32 195 386 82 154 375 85 156 376
          97 127 371 100 124 372 184 58 302 182 55 303
          266 299 387 267 301 388 115 331 359 117 332 360
          188 191 370 186 194 369 359 349 242 360 351 245
          357 247 407 358 246 408 36 177 409 34 176 410
          177 312 409 176 315 410 312 177 398 315 176 397
          226 128 292 223 125 293 325 390 221 324 389 220
          320 330 393 318 330 394 177 18 378 176 21 377
          389 67 199 390 70 201 173 246 411 170 247 412
          357 241 383 358 244 384 404 232 413 403 233 414
          233 251 414 232 254 413 234 109 368 235 112 367
          64 198 76 65 200 79 216 260 387 218 262 388
          303 55 407 302 58 408 38 43 281 39 46 283
          91 89 391 94 88 392 223 222 405 226 225 406
          315 239 410 312 237 409 235 364 208 234 363 209
          48 289 306 51 291 307 268 329 217 269 328 219
          247 37 407 246 35 408 266 264 310 267 265 311
          127 97 365 124 100 366 12 308 110 15 309 113
          258 152 347 259 153 348 188 296 150 186 297 151
          160 324 220 161 325 221 174 337 306 175 338 307
          25 280 400 28 282 402 264 266 387 265 267 388
          99 343 397 96 346 398 88 48 392 89 51 391
          370 191 215 369 194 214 125 223 405 128 226 406
          132 258 347 135 259 348 329 143 294 328 145 295
          322 177 378 323 176 377 415 404 413 251 416 414
          254 415 413 416 403 414 88 77 374 89 74 373
          342 321 393 345 319 394 316 342 393 313 345 394
          337 197 392 338 196 391 326 13 272 327 16 275
          109 108 368 112 111 367 381 182 303 382 184 302
          260 264 387 262 265 388 48 337 392 51 338 391
          36 237 381 34 239 382 326 333 417 327 334 418
          331 207 350 332 206 352 323 205 397 322 204 398
          187 369 366 189 370 365 326 271 399 327 274 401
          191 188 385 194 186 386 281 142 304 283 144 305
          271 123 400 274 120 402 192 30 256 195 32 257
          227 298 396 224 300 395 126 125 405 129 128 406
          333 326 399 334 327 401 225 227 396 222 224 395
          369 124 366 370 127 365 121 123 278 118 120 279
          171 173 411 168 170 412 177 322 398 176 323 397
          69 105 201 66 104 199 337 48 306 338 51 307
          209 122 380 208 119 379 384 171 411 383 168 412
          333 192 417 334 195 418 123 25 400 120 28 402
          308 152 110 309 153 113 55 248 407 58 249 408
          331 349 359 332 351 360 13 326 417 16 327 418
          328 223 145 329 226 143 234 209 380 235 208 379
          242 349 395 245 351 396 223 293 145 226 292 143
          237 36 409 239 34 410 37 303 407 35 302 408
          280 281 304 282 283 305 35 246 146 37 247 147
          186 151 386 188 150 385 247 357 412 246 358 411
          343 315 397 346 312 398 328 295 219 329 294 217
          300 242 395 298 245 396 192 256 417 195 257 418
          292 142 143 293 144 145 304 333 399 305 334 401
          151 32 386 150 30 385 358 384 411 357 383 412
          294 42 217 295 45 219 256 13 417 257 16 418
          280 304 399 282 305 401 248 357 407 249 358 408
        </DataArray>
        <DataArray type="Int32" Name="offsets" NumberOfComponents="1" format="ascii">
          3 6 9 12 15 18 21 24 27 30 33 36
          39 42 45 48 51 54 57 60 63 66 69 72
          75 78 81 84 87 90 93 96 99 102 105 108
          111 114 117 120 123 126 129 132 135 138 141 144
          147 150 153 156 159 162 165 168 171 174 177 180
          183 186 189 192 195 198 201 204 207 210 213 216
          219 222 225 228 231 234 237 240 243 246 249 252
          255 258 261 264 267 270 273 276 279 282 285 288
          291 294 297 300 303 306 309 312 315 318 321 324
          327 330 333 336 339 342 345 348 351 354 357 360
          363 366 369 372 375 378 381 384 387 390 393 396
          399 402 405 408 411 414 417 420 423 426 429 432
          435 438 441 444 447 450 453 456 459 462 465 468
          471 474 477 480 483 486 489 492 495 498 501 504
          507 510 513 516 519 522 525 528 531 534 537 540
          543 546 549 552 555 558 561 564 567 570 573 576
          579 582 585 588 591 594 597 600 603 606 609 612
          615 618 621 624 627 630 633 636 639 642 645 648
          651 654 657 660 663 666 669 672 675 678 681 684
          687 690 693 696 699 702 705 708 711 714 717 720
          723 726 729 732 735 738 741 744 747 750 753 756
          759 762 765 768 771 774 777 780 783 786 789 792
          795 798 801 804 807 810 813 816 819 822 825 828
          831 834 837 840 843 846 849 852 855 858 861 864
          867 870 873 876 879 882 885 888 891 894 897 900
          903 906 909 912 915 918 921 924 927 930 933 936
          939 942 945 948 951 954 957 960 963 966 969 972
          975 978 981 984 987 990 993 996 999 1002 1005 1008
          1011 1014 1017 1020 1023 1026 1029 1032 1035 1038 1041 1044
          1047 1050 1053 1056 1059 1062 1065 1068 1071 1074 1077 1080
          1083 1086 1089 1092 1095 1098 1101 1104 1107 1110 1113 1116
          1119 1122 1125 1128 1131 1134 1137 1140 1143 1146 1149 1152
          1155 1158 1161 1164 1167 1170 1173 1176 1179 1182 1185 1188
          1191 1194 1197 1200 1203 1206 1209 1212 1215 1218 1221 1224
          1227 1230 1233 1236 1239 1242 1245 1248 1251 1254 1257 1260
          1263 1266 1269 1272 1275 1278 1281 1284 1287 1290 1293 1296
          1299 1302 1305 1308 1311 1314 1317 1320 1323 1326 1329 1332
          1335 1338 1341 1344 1347 1350 1353 1356 1359 1362 1365 1368
          1371 1374 1377 1380 1383 1386 1389 1392 1395 1398 1401 1404
          1407 1410 1413 1416 1419 1422 1425 1428 1431 1434 1437 1440
          1443 1446 1449 1452 1455 1458 1461 1464 1467 1470 1473 1476
          1479 1482 1485 1488 1491 1494 1497 1500 1503 1506 1509 1512
          1515 1518 1521 1524 1527 1530 1533 1536 1539 1542 1545 1548
          1551 1554 1557 1560 1563 1566 1569 1572 1575 1578 1581 1584
          1587 1590 1593 1596 1599 1602 1605 1608 1611 1614 1617 1620
          1623 1626 1629 1632 1635 1638 1641 1644 1647 1650 1653 1656
          1659 1662 1665 1668 1671 1674 1677 1680 1683 1686 1689 1692
          1695 1698 1701 1704 1707 1710 1713 1716 1719 1722 1725 1728
          1731 1734 1737 1740 1743 1746 1749 1752 1755 1758 1761 1764
          1767 1770 1773 1776 1779 1782 1785 1788 1791 1794 1797 1800
          1803 1806 1809 1812 1815 1818 1821 1824 1827 1830 1833 1836
          1839 1842 1845 1848 1851 1854 1857 1860 1863 1866 1869 1872
          1875 1878 1881 1884 1887 1890 1893 1896 1899 1902 1905 1908
          1911 1914 1917 1920 1923 1926 1929 1932 1935 1938 1941 1944
          1947 1950 1953 1956 1959 1962 1965 1968 1971 1974 1977 1980
          1983 1986 1989 1992 1995 1998 2001 2004 2007 2010 2013 2016
          2019 2022 2025 2028 2031 2034 2037 2040 2043 2046 2049 2052
          2055 2058 2061 2064 2067 2070 2073 2076 2079 2082 2085 2088
          2091 2094 2097 2100 2103 2106 2109 2112 2115 2118 2121 2124
          2127 2130 2133 2136 2139 2142 2145 2148 2151 2154 2157 2160
          2163 2166 2169 2172 2175 2178 2181 2184 2187 2190 2193 2196
          2199 2202 2205 2208 2211 2214 2217 2220 2223 2226 2229 2232
          2235 2238 2241 2244 2247 2250 2253 2256 2259 2262 2265 2268
          2271 2274 2277 2280 2283 2286 2289 2292 2295 2298 2301 2304
          2307 2310 2313 2316 2319 2322 2325 2328 2331 2334 2337 2340
          2343 2346 2349 2352 2355 2358 2361 2364 2367 2370 2373 2376
          2379 2382 2385 2388
        </DataArray>
        <DataArray type="UInt8" Name="types" NumberOfComponents="1" format="ascii">
          5 5 5 5 5 5 5 5 5 5 5 5
          5 5 5 5 5 5 5 5 5 5 5 5
          5 5 5 5 5 5 5 5 5 5 5 5
          5 5 5 5 5 5 5 5 5 5 5 5
          5 5 5 5 5 5 5 5 5 5 5 5
          5 5 5 5 5 5 5 5 5 5 5 5
          5 5 5 5 5 5 5 5 5 5 5 5
          5 5 5 5 5 5 5 5 5 5 5 5
          5 5 5 5 5 5 5 5 5 5 5 5
          5 5 5 5 5 5 5 5 5 5 5 5
          5 5 5 5 5 5 5 5 5 5 5 5
          5 5 5 5 5 5 5 5 5 5 5 5
          5 5 5 5 5 5 5 5 5 5 5 5
          5 5 5 5 5 5 5 5 5 5 5 5
          5 5 5 5 5 5 5 5 5 5 5 5
          5 5 5 5 5 5 5 5 5 5 5 5
          5 5 5 5 5 5 5 5 5 5 5 5
          5 5 5 5 5 5 5 5 5 5 5 5
          5 5 5 5 5 5 5 5 5 5 5 5
          5 5 5 5 5 5 5 5 5 5 5 5
          5 5 5 5 5 5 5 5 5 5 5 5
          5 5 5 5 5 5 5 5 5 5 5 5
          5 5 5 5 5 5 5 5 5 5 5 5
          5 5 5 5 5 5 5 5 5 5 5 5
          5 5 5 5 5 5 5 5 5 5 5 5
          5 5 5 5 5 5 5 5 5 5 5 5
          5 5 5 5 5 5 5 5 5 5 5 5
          5 5 5 5 5 5 5 5 5 5 5 5
          5 5 5 5 5 5 5 5 5 5 5 5
          5 5 5 5 5 5 5 5 5 5 5 5
          5 5 5 5 5 5 5 5 5 5 5 5
          5 5 5 5 5 5 5 5 5 5 5 5
          5 5 5 5 5 5 5 5 5 5 5 5
          5 5 5 5 5 5 5 5 5 5 5 5
          5 5 5 5 5 5 5 5 5 5 5 5
          5 5 5 5 5 5 5 5 5 5 5 5
          5 5 5 5 5 5 5 5 5 5 5 5
          5 5 5 5 5 5 5 5 5 5 5 5
          5 5 5 5 5 5 5 5 5 5 5 5
          5 5 5 5 5 5 5 5 5 5 5 5
          5 5 5 5 5 5 5 5 5 5 5 5
          5 5 5 5 5 5 5 5 5 5 5 5
          5 5 5 5 5 5 5 5 5 5 5 5
          5 5 5 5 5 5 5 5 5 5 5 5
          5 5 5 5 5 5 5 5 5 5 5 5
          5 5 5 5 5 5 5 5 5 5 5 5
          5 5 5 5 5 5 5 5 5 5 5 5
          5 5 5 5 5 5 5 5 5 5 5 5
          5 5 5 5 5 5 5 5 5 5 5 5
          5 5 5 5 5 5 5 5 5 5 5 5
          5 5 5 5 5 5 5 5 5 5 5 5
          5 5 5 5 5 5 5 5 5 5 5 5
          5 5 5 5 5 5 5 5 5 5 5 5
          5 5 5 5 5 5 5 5 5 5 5 5
          5 5 5 5 5 5 5 5 5 5 5 5
          5 5 5 5 5 5 5 5 5 5 5 5
          5 5 5 5 5 5 5 5 5 5 5 5
          5 5 5 5 5 5 5 5 5 5 5 5
          5 5 5 5 5 5 5 5 5 5 5 5
          5 5 5 5 5 5 5 5 5 5 5 5
          5 5 5 5 5 5 5 5 5 5 5 5
          5 5 5 5 5 5 5 5 5 5 5 5
          5 5 5 5 5 5 5 5 5 5 5 5
          5 5 5 5 5 5 5 5 5 5 5 5
          5 5 5 5 5 5 5 5 5 5 5 5
          5 5 5 5 5 5 5 5 5 5 5 5
          5 5 5 5
        </DataArray>
      </Cells>
    </Piece>
  </UnstructuredGrid>
</VTKFile>
