<?xml version="1.0"?>
<VTKFile type="UnstructuredGrid" version="0.1" byte_order="LittleEndian">
  <UnstructuredGrid>
    <Piece NumberOfCells="10392" NumberOfPoints="5237">
      <PointData Scalars="displacement">
        <DataArray type="Float32" Name="displacement" NumberOfComponents="3" format="ascii">
          -0.117663 -0.0192447 0 -0.105425 -0.0235428 0 -0.10559 -0.0172874 0 -0.128217 -0.0258429 0
          -0.121833 -0.0243193 0 -0.128058 -0.0183308 0 -0.0976174 -0.00733729 0 -0.110989 -0.0132619 0
          0.0287165 0.116099 0 0.0131396 0.116532 0 0.0235299 0.115295 0 0.0351813 0.113706 0
          0.0459914 0.113927 0 0.0296873 -0.00863603 0 0.0342002 -0.0260707 0 0.0404314 -0.0182883 0
          0.0345954 -0.170875 0 0.0312363 -0.165437 0 0.0314162 -0.172668 0 -0.113494 -0.0271366 0
          -0.133981 -0.0188874 0 0.0312956 0.165491 0 0.0346556 0.170929 0 0.0314742 0.172721 0
          0.112256 0.0874065 0 0.105396 0.0780908 0 0.115841 0.0818443 0 0.0867491 -0.0265748 0
          0.0918436 -0.0176448 0 0.0788429 -0.0172798 0 0.130977 -0.0199462 0 0.128174 -4.29407e-05 0
          0.14167 -0.00970462 0 0.101928 -0.0365538 0 0.114786 -0.0425262 0 0.115913 -0.0336573 0
          -0.00802246 -0.16788 0 -0.00536729 -0.162465 0 -0.0106981 -0.163546 0 -0.0053241 0.162505 0
          -0.00798027 0.16792 0 -0.0106567 0.163585 0 0.0703446 -0.0189861 0 0.0668966 -0.00922925 0
          0.0625265 -0.0264082 0 0.113422 -0.00236377 0 0.108224 -5.18902e-06 0 0.107157 -0.00854134 0
          -0.0669312 0.0948678 0 -0.0657098 0.107963 0 -0.0714497 0.105546 0 -0.0192548 0.020484 0
          -0.0202102 0.020528 0 -0.0331484 0.0344724 0 -0.0174283 -0.115584 0 -0.0303648 -0.114465 0
          -0.0157051 -0.111317 0 -0.000116354 -0.093184 0 -0.00431232 -0.104547 0 -0.0133265 -0.10034 0
          0.0341909 0.0755472 0 0.041356 0.0846641 0 0.0268297 0.0834706 0 0.105241 0.000754478 0
          0.109427 0.00543543 0 0.111686 -0.000919941 0 0.140921 0.00854716 0 0.0918584 0.0372054 0
          0.0636894 0.0292445 0 0.0827594 0.0444519 0 -0.0657297 -0.107922 0 -0.0669492 -0.0948243 0
          -0.0714695 -0.105503 0 0.059056 -0.0210157 0 0.086601 -0.0241022 0 0.0783523 -0.0327126 0
          0.0172555 0.0966871 0 0.0279714 0.0998978 0 0.0168117 0.0824598 0 -0.0751823 0.126548 0
          -0.0802062 0.134326 0 -0.0812296 0.125981 0 0.104205 0.00782279 0 0.103116 0.00416238 0
          0.0166511 0.0356974 0 0.0216858 0.0237344 0 0.0278822 0.035 0 -0.0802332 -0.134286 0
          -0.0752071 -0.126508 0 -0.0812551 -0.12594 0 0.0483783 0.154352 0 0.0462068 0.144716 0
          0.0516683 0.149502 0 0.082712 0.0573992 0 0.0866356 0.0452956 0 0.0889736 0.0570569 0
          0.0822428 0.133086 0 0.0767891 0.13489 0 0.075129 0.126809 0 -0.0467825 -0.102567 0
          -0.0428739 -0.110234 0 -0.0540756 -0.107589 0 -0.0930407 0.0424696 0 -0.0985057 0.0389768 0
          -0.0985499 0.0304077 0 -0.0141151 0.0982981 0 -0.0299289 0.102117 0 -0.0259394 0.0932103 0
          0.111446 0.0873359 0 0.120922 0.0802394 0 0.124709 0.0739025 0 -0.0466227 0.0701392 0
          -0.0433509 0.0829181 0 -0.047863 0.0810564 0 0.000579972 -0.0642669 0 -0.00255314 -0.0824429 0
          0.00331479 -0.0796064 0 -0.00251788 0.0824838 0 0.000609741 0.0643088 0 0.00335314 0.0796468 0
          0.0473245 0.0392164 0 0.0291824 0.0268466 0 0.0500986 0.0455651 0 0.0810954 0.0471408 0
          0.0333712 -0.0631965 0 0.0209274 -0.0682914 0 0.0343925 -0.0738072 0 0.0461309 -0.144654 0
          0.0483032 -0.154291 0 0.0515887 -0.149439 0 -0.0881713 -0.0771607 0 -0.102782 -0.0753283 0
          -0.0907835 -0.0850117 0 0.0512153 -0.0545698 0 0.0510236 -0.0621864 0 0.0388925 -0.0455066 0
          -0.0433793 -0.0828659 0 -0.0466246 -0.0696555 0 -0.0478626 -0.0809416 0 0.105685 -0.0782444 0
          0.112083 -0.0873824 0 0.115758 -0.0818514 0 0.0320021 -0.0527936 0 0.025059 -0.0551187 0
          0.0155602 -0.0298461 0 0.0252819 0.0552131 0 0.0316224 0.0525365 0 0.0156672 0.0302072 0
          -0.0746961 0.0170799 0 -0.0680929 0.029284 0 -0.0734429 0.0295705 0 -0.122189 -0.0215215 0
          -0.136459 -0.0215364 0 -0.135301 -0.0104676 0 -0.0309795 0.064282 0 -0.0364173 0.0776648 0
          -0.0451541 0.0688951 0 -0.096747 -0.0707626 0 -0.0231402 -0.0351199 0 -0.0403987 -0.0642015 0
          -0.0411011 -0.0563206 0 -0.119214 0.0330085 0 -0.122284 0.0250273 0 -0.1133 0.0270241 0
          0.0553089 0.109619 0 0.0647254 0.104255 0 0.0513668 0.102135 0 0.0548675 0.175867 0
          0.0508227 0.17442 0 0.0528312 0.169668 0 -0.127578 -0.0131402 0 -0.130947 -0.0077331 0
          -0.134306 -0.0077785 0 0.050756 -0.174365 0 0.0548006 -0.175812 0 0.0527618 -0.169612 0
          0.0155143 -0.0951747 0 0.0240582 -0.0841748 0 0.0288536 -0.101442 0 -1.34547e-08 -5.48413e-09 0
          -1.12525e-08 -4.63202e-09 0 -0.0370736 0.154838 0 -0.0377637 0.162967 0 -0.0409961 0.160463 0
          -0.0377979 -0.162931 0 -0.0371073 -0.154803 0 -0.0410294 -0.160428 0 0.0581789 -0.113033 0
          0.0626812 -0.106612 0 0.058202 -0.101299 0 -0.111623 -0.0569275 0 -0.0966993 -0.0585805 0
          -0.105955 -0.0681157 0 0.112652 0.0878864 0 0.0181124 0.0180042 0 -0.0794579 0.0202505 0
          -0.139258 0.0278317 0 -0.131245 0.0316137 0 -0.135789 0.0365743 0 0.129502 0.0190736 0
          0.134585 0.00841947 0 0.138318 0.0103929 0 -0.0848918 0.0109175 0 0.00210329 -0.00951643 0
          -0.00529628 -0.000138951 0 -0.00350646 -0.0158412 0 -0.00527727 0.000173712 0 0.00211587 0.00954961 0
          -0.00350687 0.0158753 0 0.0346303 0.0715423 0 0.0409169 0.0648322 0 0.0402541 0.0764485 0
          -0.122215 0.00435425 0 -0.115824 0.00384709 0 -0.117455 0.00861066 0 -0.0785643 -0.106783 0
          -0.0879871 -0.10306 0 -0.0731374 -0.108159 0 0.0362854 0.0136615 0 0.0281741 0.0213993 0
          0.0304165 0.00433257 0 0.0446433 -0.0108437 0 0.0382218 0.000408756 0 0.0365076 -0.00657955 0
          0.0534281 -0.0841615 0 0.0599124 -0.0832885 0 0.0543582 -0.072969 0 -0.0367955 -0.0258643 0
          1.58078e-08 5.53622e-09 0 -0.0269806 -0.0223122 0 -0.111977 0.00229369 0 -0.109277 -0.00131993 0
          -0.113784 -0.00109189 0 -0.125996 -0.00396189 0 -0.128703 -0.00539782 0 -0.123715 -0.00703258 0
          -0.123174 -0.0674661 0 -0.136097 -0.0535249 0 -0.128785 -0.0667902 0 0.104422 0.0483722 0
          0.109834 0.0416671 0 0.112389 0.0591503 0 -0.0734446 0.0790465 0 -0.0783976 0.0716801 0
          -0.0754615 0.06275 0 0.100133 -0.0101325 0 0.0883571 -0.0877915 0 0.0938902 -0.0823583 0
          0.0860755 -0.0755841 0 0.0766838 -0.134831 0 0.0821303 -0.133031 0 0.075025 -0.12675 0
          0.0390955 -0.171962 0 0.0353797 -0.165132 0 -0.142042 0.0442692 0 -0.148877 0.0297059 0
          -0.143116 0.0377019 0 0.0234576 0.0189554 0 0.0391578 0.172016 0 0.0354417 0.165187 0
          0.0107224 -0.0711647 0 0.0249366 -0.0785865 0 0.0791473 0.123972 0 4.97279e-09 -1.4885e-08 0
          -0.0212781 0.0274553 0 -0.0169499 0.0267437 0 0.150427 0.0211264 0 0.154753 0.00380279 0
          0.152615 0.0226698 0 0.0613997 0.166914 0 0.0601213 0.172302 0 0.0570179 0.166495 0
          0.0943248 -0.0950377 0 -0.0424981 0.151127 0 -0.0480754 0.154982 0 -0.047655 0.147029 0
          0.0417772 0.040788 0 -0.0855772 0.11207 0 -0.0779805 0.113019 0 -0.0827477 0.119021 0
          0.082206 0.0320264 0 0.0751938 0.0467402 0 -0.0481068 -0.154947 0 -0.0425302 -0.151091 0
          -0.0476854 -0.146993 0 -0.103779 0.0173871 0 -0.0942965 0.028917 0 -0.0299003 0.174717 0
          -0.034659 0.175805 0 -0.0310128 0.170497 0 1.65919e-09 1.86865e-08 0 -4.57559e-10 1.8998e-08 0
          -0.00360609 -0.0363639 0 -0.0346944 -0.17577 0 -0.0299366 -0.174681 0 -0.0310488 -0.170461 0
          0.014559 0.114343 0 -0.00218917 0.115713 0 0.00495101 0.111547 0 -0.0231477 0.137748 0
          -0.0189 0.131259 0 -0.0198086 0.14081 0 0.0221548 -0.0903597 0 0.0216897 -0.0737164 0
          0.0170333 -0.0867841 0 -0.0189375 -0.131222 0 -0.0231841 -0.137711 0 -0.0198465 -0.140773 0
          0.0600542 -0.172247 0 0.0613266 -0.166856 0 0.0569446 -0.166438 0 0.0718912 0.15875 0
          0.0761219 0.156319 0 0.0753635 0.160714 0 -0.0325469 0.00122745 0 -0.0396642 0.00712419 0
          -0.0404403 -0.0115247 0 -0.0780024 -0.112975 0 -0.0855999 -0.112023 0 -0.0827718 -0.118978 0
          0.0162863 -0.0584336 0 0.0120845 -0.0317505 0 0.0194063 -0.0405351 0 0.0245667 -0.04461 0
          0.0262618 -0.0335416 0 -0.0416634 0.0680815 0 -0.0987966 0.0359832 0 -0.105104 0.0230492 0
          -0.115849 0.0333529 0 -0.100981 0.0626869 0 -0.100583 0.0544509 0 -0.0856334 0.0611963 0
          -0.0187469 0.159728 0 -0.0151842 0.165688 0 -0.0193668 0.168616 0 -0.0152243 -0.16565 0
          -0.0187858 -0.159691 0 -0.0194057 -0.168579 0 0.0414717 0.106414 0 0.0702108 -0.0418518 0
          0.0642186 -0.0485226 0 0.0791919 -0.0523649 0 -0.0648479 0.0516219 0 -0.0586745 0.0610029 0
          -0.0655895 0.0645723 0 -0.0417212 -0.0680171 0 -0.0496536 -0.112479 0 -0.0371574 -0.115386 0
          -0.0338837 -0.114049 0 0.0131045 0.116327 0 0.106441 0.0910763 0 0.114818 0.0951172 0
          0.110166 -0.0432502 0 0.1046 -0.0504831 0 0.112593 -0.0584517 0 0.0593071 -0.0700912 0
          0.0723462 0.0901176 0 0.0603813 0.093011 0 0.0700559 0.0982663 0 0.0174475 0.059447 0
          0.0126527 0.0332208 0 0.0759884 -0.156228 0 0.0714386 -0.158138 0 0.0752558 -0.160673 0
          -0.00449514 -0.110868 0 0.00195715 -0.116094 0 0.0092721 -0.112235 0 -0.0194998 0.0644794 0
          -0.0146492 0.0519046 0 -0.014247 0.0681288 0 -0.139082 0.0358163 0 -0.129251 0.0315315 0
          -0.13863 0.0203562 0 0.0855392 0.119346 0 0.0909251 0.115933 0 0.0902997 0.124757 0
          0.0281736 -0.169558 0 -0.103662 0.0271241 0 -0.108283 0.0193993 0 -0.0146757 -0.0518759 0
          -0.0195284 -0.0644491 0 -0.0142762 -0.0680972 0 0.0282306 0.16961 0 0.0438447 0.151314 0
          0.0752371 0.0271063 0 0.12014 0.0741722 0 0.130998 0.0639786 0 0.127646 0.0567819 0
          -0.15327 -0.0227123 0 -0.148542 -0.0395195 0 -0.152565 -0.0276017 0 0.0984993 -0.0390675 0
          0.0181868 -0.12783 0 0.0127803 -0.131697 0 0.0181501 -0.136854 0 0.0440858 -0.186728 0
          0.0464882 -0.18547 0 0.0431121 -0.181531 0 0.13373 -0.0193668 0 0.140255 -0.00955555 0
          0.132364 -0.0144708 0 0.0437726 -0.151253 0 0.0465503 0.185524 0 0.0441455 0.186781 0
          0.0431734 0.181585 0 0.0461491 -0.100938 0 0.0336203 -0.104567 0 0.0514125 -0.105444 0
          0.133534 -0.0660524 0 0.12554 -0.0720504 0 0.119794 -0.0800159 0 0.0522985 0.182764 0
          0.0496301 0.184198 0 0.0493747 0.179192 0 0.0495667 -0.184144 0 0.0522335 -0.18271 0
          0.04931 -0.179137 0 0.0128288 0.131746 0 0.0182371 0.127884 0 0.0182016 0.136906 0
          0.11144 0.0989688 0 -0.143859 0.0494055 0 -0.136616 0.0618219 0 -0.14249 0.0503993 0
          -0.0308505 -0.110082 0 0.0487227 0.0703073 0 0.0513734 0.0810591 0 0.0452484 0.0838558 0
          -0.029077 -0.0521634 0 -0.155699 0.00346209 0 -0.155862 -0.00888766 0 -0.15477 -0.000117194 0
          -0.0566327 0.0781795 0 -0.0704061 0.0852342 0 -0.068778 0.0749522 0 0.0165707 0.0736074 0
          0.0181153 0.057405 0 0.0213806 0.0678995 0 -0.0418093 0.034435 0 -0.0312168 0.0218368 0
          -0.0590795 0.041872 0 -0.0482367 -0.00849138 0 0.0615629 -0.110517 0 0.0712195 -0.105098 0
          0.0566916 -0.108416 0 -0.0516803 0.0603722 0 -0.0512529 0.0749094 0 -0.0555272 0.0710776 0
          0.0941768 0.0950394 0 0.095163 0.0827219 0 0.0993236 0.0895271 0 -0.0576855 -0.0338906 0
          -0.0567067 -0.0399212 0 0.0790376 -0.123919 0 -0.0328095 0.0475052 0 -0.0784138 -0.0716216 0
          -0.0734586 -0.0789925 0 -0.0752359 -0.0631875 0 -0.0316853 0.179637 0 -0.0317212 -0.179602 0
          -0.102738 -0.0898614 0 -0.091503 -0.0915539 0 -0.0925161 -0.0962365 0 -0.038979 0.175872 0
          -0.0379319 0.17026 0 -0.0379664 -0.170225 0 -0.0390135 -0.175837 0 -0.0413581 -0.0402246 0
          -0.0426569 -0.0455175 0 -0.0521241 -0.0527035 0 -0.0512342 -0.0748905 0 -0.0508382 -0.0607191 0
          -0.0552002 -0.0679052 0 0.0143391 -0.121279 0 -0.0457629 0.0200463 0 -0.0424104 0.034043 0
          -0.0496569 0.0259682 0 -0.154292 -0.010257 0 0.0212438 -0.0258117 0 0.0143862 0.121329 0
          0.0177384 -0.0846914 0 0.106271 -0.0910549 0 0.114646 -0.0950935 0 0.0750688 -0.0421217 0
          0.0805986 -0.0477333 0 0.0820871 -0.0334642 0 -0.127377 0.042509 0 -0.100477 -0.0966025 0
          -0.0923683 -0.100934 0 -0.0403619 -0.00747365 0 -0.0325929 -0.00122536 0 -0.0405306 0.0115046 0
          0.0667787 0.104841 0 0.0530898 0.102279 0 0.0626585 0.0966727 0 4.79614e-09 1.47199e-08 0
          4.04761e-09 1.63547e-08 0 -0.141251 0.00311467 0 -0.137623 0.00810913 0 -0.139915 0.0120793 0
          -0.059374 -0.0609618 0 -0.0652884 -0.0511003 0 -0.0657971 -0.0644373 0 0.0715455 0.153364 0
          -0.12934 0.0481309 0 0.0768898 0.0621832 0 4.92448e-09 -1.13354e-08 0 3.47369e-09 -8.44281e-09 0
          -0.0378958 0.0804645 0 0.104812 0.0322405 0 -0.0343005 -0.102905 0 -0.0125641 -0.0339054 0
          -0.0141239 -0.0512552 0 -0.0237058 -0.0657672 0 0.0746593 0.0972038 0 0.0209709 0.0684338 0
          0.0140366 0.0810716 0 0.0103643 0.0677574 0 -0.0833822 0.0328503 0 -0.0755708 0.0482424 0
          -0.0830455 0.0451819 0 -0.0964024 0.0582656 0 -0.107052 0.0699559 0 -0.0945693 0.0696448 0
          -0.0535962 -0.113163 0 -0.0379359 -0.0804194 0 0.0468779 0.164644 0 0.0436449 0.166068 0
          0.0453548 0.159234 0 0.0435781 -0.166012 0 0.0468085 -0.164588 0 0.0452841 -0.159176 0
          -0.0553388 0.0320712 0 -0.0694455 -0.00962634 0 -0.0893975 -0.0171238 0 -0.0952829 -0.00876261 0
          -0.0228522 -0.0496697 0 -0.0124109 0.0124373 0 -0.0343531 0.159734 0 0.0862949 -0.0624654 0
          0.090583 -0.0553962 0 0.0855414 -0.0511028 0 0.111274 -0.0989465 0 -0.0343878 -0.159699 0
          0.0290112 0.0221224 0 0.132577 0.0308769 0 0.120383 0.0452706 0 0.122249 0.034701 0
          0.057007 0.0634808 0 0.0588517 0.0496513 0 0.0619912 0.061185 0 0.0713855 -0.153207 0
          -0.118707 -0.0574824 0 -0.131082 -0.0517227 0 -0.125367 -0.0602252 0 0.0258214 0.0831492 0
          -0.0689354 -0.0286039 0 -0.06377 -0.0231315 0 -0.0748579 -0.0132158 0 -0.0808464 -0.00120098 0
          0.0575062 0.115331 0 0.0603337 0.124537 0 0.0551332 0.122231 0 -0.0263434 -0.0888011 0
          -0.0347563 -0.0821767 0 0.090799 -0.115887 0 0.0854206 -0.119297 0 0.0901762 -0.124708 0
          0.102815 -0.0440692 0 0.0931758 -0.0495845 0 0.108261 -0.0492285 0 0.0131332 -0.07588 0
          0.0631817 0.116723 0 -0.0720025 0.0634252 0 -0.0733543 0.0491176 0 -0.0608226 0.0551991 0
          0.12383 0.0100083 0 0.130507 0.00711047 0 0.127274 0.0136706 0 5.02273e-10 -5.52219e-10 0
          -6.79381e-09 3.80545e-09 0 0.0096189 -0.00974889 0 -3.96209e-09 7.0571e-09 0 -0.0398145 0.0211432 0
          0.064824 0.0490748 0 -0.090261 0.0857676 0 -0.0822578 0.0854343 0 -0.0868581 0.0940549 0
          0.128353 -0.0330201 0 -0.125969 0.0526905 0 -0.111405 0.0303641 0 -0.114244 0.0414875 0
          -0.0406291 -0.0757305 0 -0.0307526 -0.0658296 0 -0.0454816 -0.0169092 0 -0.0424372 -0.0327387 0
          -0.0393157 -0.0214465 0 0.135837 0.0201457 0 0.140762 0.0199389 0 -0.023913 0.1279 0
          -0.0298651 0.107146 0 -0.0355311 0.113568 0 -0.0219988 0.1137 0 -0.0239487 -0.127863 0
          0.086308 0.141322 0 0.0884588 0.136842 0 -0.0698415 0.10227 0 -0.0779254 0.093745 0
          -0.0818904 0.0994285 0 0.0987407 -0.0947182 0 0.0896514 -0.102112 0 0.0839813 -0.100928 0
          -0.123807 0.00825659 0 0.00245014 0.0212253 0 0.00883903 0.00807646 0 0.0121779 0.0218183 0
          0.0843961 0.110546 0 0.00591641 -0.154963 0 0.0111195 -0.15682 0 0.00893325 -0.148318 0
          0.0260302 -0.0804647 0 0.0290101 -0.0693457 0 -0.00698342 0.0573789 0 -0.0100542 0.0844641 0
          -3.14957e-05 0.0770169 0 0.011169 0.156867 0 0.00596377 0.155007 0 0.00898172 0.148364 0
          -0.00931183 0.0651972 0 -0.0735105 0.034979 0 -0.0860397 0.043143 0 -0.0488224 0.01001 0
          -0.0332842 0.042915 0 -0.00934068 -0.0651647 0 -0.0157009 0.179651 0 -0.0190075 0.175875 0
          -0.0164143 0.171664 0 -0.0190463 -0.175838 0 -0.0157404 -0.179613 0 -0.0164539 -0.171627 0
          0.0296027 0.0291856 0 0.0392291 -0.165368 0 0.119946 0.0146049 0 -0.0513987 0.112589 0
          -0.0681127 0.108345 0 -0.0623168 0.111266 0 0.0505989 0.0931424 0 0.0549739 0.139166 0
          0.0503256 0.131415 0 0.0565908 0.13168 0 0.0392934 0.165424 0 0.0670788 -0.0103298 0
          0.0701189 -0.022926 0 0.145264 -0.000533212 0 0.14733 0.0111806 0 0.142397 0.0103549 0
          -0.0487583 0.113579 0 -0.0497034 0.100631 0 -0.0444009 0.107637 0 -0.110679 -0.0297965 0
          -0.125776 -0.0524633 0 -0.114036 -0.0413195 0 -0.115076 0.0823217 0 -0.103025 0.0935684 0
          -0.101825 0.0906871 0 -0.0497201 -0.100591 0 -0.048781 -0.11354 0 -0.0444248 -0.107596 0
          -0.03145 -0.0404146 0 -0.122359 -0.035982 0 -0.104858 -0.0278464 0 0.056414 0.171562 0
          -0.141915 -0.00373176 0 -0.14843 -0.00909308 0 -0.145317 0.00664533 0 -0.144477 0.042719 0
          -0.136591 0.0597824 0 -0.138964 0.046485 0 0.00081514 -0.0405106 0 0.0563453 -0.171507 0
          0.0970119 0.144807 0 0.0948877 0.1482 0 0.0913308 0.142437 0 0.0448365 0.000460654 0
          0.060163 0.08399 0 0.0647011 0.0725834 0 0.0671141 0.0851887 0 -0.0752499 -0.105115 0
          -0.0894634 -0.100897 0 0.109867 0.0698806 0 0.105699 0.0606888 0 0.127977 -0.00531528 0
          0.126094 -0.0015281 0 0.122395 -0.00355565 0 0.00651492 -0.103958 0 0.0063497 -0.0859232 0
          0.0947685 -0.148147 0 0.0968875 -0.144756 0 0.0912115 -0.142384 0 0.112881 0.039797 0
          0.0983569 0.0350168 0 0.107434 0.0300465 0 0.0299536 -0.0749426 0 0.0459634 -0.0318931 0
          0.0602386 -0.12445 0 0.0548883 -0.121983 0 -0.0304914 -0.0311687 0 0.0545796 0.0337872 0
          0.0503479 0.0461119 0 0.0459545 0.0415057 0 0.086193 -0.141267 0 0.0883405 -0.136789 0
          0.0502437 -0.131353 0 0.0548896 -0.139102 0 0.0565036 -0.131618 0 0.0609707 0.140566 0
          -0.128945 -0.0287264 0 0.0394612 -0.127679 0 0.0330711 -0.130646 0 0.0378376 -0.137396 0
          -0.00784125 0.0482152 0 -0.00786612 -0.0481811 0 0.101658 0.0263783 0 0.0997587 0.0416523 0
          0.139854 -0.0175151 0 0.139132 -0.0276152 0 0.146237 -0.0127233 0 0.0331328 0.130711 0
          0.0395299 0.127745 0 0.0379054 0.137459 0 -0.138723 0.000783377 0 -0.00480132 -0.134198 0
          -0.000191782 -0.13543 0 -0.00381929 -0.125162 0 -0.000147569 0.135471 0 -0.00475865 0.134238 0
          -0.0037768 0.125202 0 0.0692289 0.172138 0 0.0665915 0.17416 0 0.065894 0.168922 0
          0.0989613 -0.0894132 0 -0.0822762 -0.0853778 0 -0.0902789 -0.0857055 0 -0.0868766 -0.0939987 0
          0.00249441 0.0540055 0 -0.0256975 0.116041 0 -0.0297814 0.115487 0 -0.0141703 0.116619 0
          0.0634241 -0.118413 0 -0.00718194 0.112861 0 -0.0115654 0.106051 0 -0.00556244 0.101019 0
          0.0665423 -0.174102 0 0.0692097 -0.172074 0 0.0658343 -0.168864 0 -0.0116028 -0.106014 0
          -0.00722198 -0.112823 0 -0.00560093 -0.100981 0 0.119454 0.0288961 0 0.0416563 -0.161401 0
          0.148572 0.038664 0 0.140002 0.05652 0 0.144858 0.0473493 0 0.0417235 0.161459 0
          0.033464 -0.0306706 0 0.0443936 -0.0357093 0 0.0508725 -0.0457413 0 -0.070004 0.0706201 0
          0.121534 -0.000366755 0 0.123487 -0.000183999 0 -0.0723908 -0.0978091 0 -0.0602104 -0.102329 0
          -0.0738525 -0.103884 0 -0.0146145 0.194737 0 -0.0170523 0.194305 0 -0.0159426 0.189733 0
          -0.0170901 -0.194268 0 -0.014653 -0.194699 0 -0.0159812 -0.189695 0 -0.125913 -0.00790694 0
          0.130734 0.068506 0 0.137938 0.0578335 0 0.0218834 -0.0181113 0 -0.0518703 0.149055 0
          -0.0529248 0.156032 0 -0.0977465 -0.0965622 0 0.0743186 -0.0771499 0 0.0883815 -0.0770182 0
          0.0851155 -0.0703323 0 0.0768313 -0.0973746 0 0.0638986 -0.1025 0 -0.0519002 -0.14902 0
          -0.0529556 -0.155996 0 0.0121933 0.066258 0 -0.144385 0.0111715 0 -0.140112 0.0206368 0
          -0.0351838 0.0403421 0 -0.047569 0.0528316 0 -0.0445086 0.0550413 0 0.049979 0.0613275 0
          0.0485425 0.0519805 0 0.0370928 0.0443095 0 0.0418039 -0.110113 0 0.0267746 -0.110955 0
          -0.12592 0.0744932 0 -0.121574 0.0793426 0 -0.114527 0.0865203 0 -0.0600485 0.0763979 0
          -0.017782 -0.0725957 0 -0.128719 0.0453107 0 -0.0850794 0.0219036 0 0.0608852 -0.140499 0
          -0.0849201 -0.102155 0 0.151491 -0.000725728 0 0.151752 -0.0129736 0 0.0426526 0.0684505 0
          0.0484216 0.0782137 0 -0.0289594 0.0274892 0 -0.0421118 0.0413502 0 -0.0294181 0.0293604 0
          0.075137 -0.0516131 0 0.0767144 0.0036287 0 0.0736801 -0.00391181 0 0.0836835 -0.00893317 0
          -0.0580919 -0.0626538 0 -0.0479527 -0.0570337 0 0.024592 -0.0142112 0 0.125032 0.0827874 0
          0.124316 0.0904064 0 0.0936529 0.0879066 0 0.0956291 0.0800682 0 0.108215 0.0801283 0
          -0.0887707 0.0514612 0 0.0842776 -0.110499 0 -0.0931457 0.135944 0 -0.09758 0.135596 0
          -0.0926169 0.130273 0 -0.0997576 -0.0200601 0 -0.0937994 -0.0230462 0 -0.101282 -0.0108015 0
          0.0447949 0.124842 0 0.0432979 0.114263 0 0.0495117 0.121693 0 0.109716 -0.0698711 0
          -0.127968 0.0682453 0 0.0239364 -0.187103 0 0.0207765 -0.185368 0 0.0213915 -0.190494 0
          -0.151358 0.00439054 0 0.020827 0.185416 0 0.0239877 0.187152 0 0.021441 0.190542 0
          0.0867294 -0.00170521 0 -0.0976112 -0.135553 0 -0.0931757 -0.135902 0 -0.092646 -0.13023 0
          0.0303589 0.075228 0 0.00878351 -0.00807627 0 0.00239601 -0.0212349 0 0.0129898 -0.0237271 0
          -0.0756378 0.136152 0 0.0749122 0.167737 0 0.0723441 0.170005 0 0.0712201 0.164888 0
          -0.073 -0.0758389 0 -0.0783412 -0.0858367 0 0.03554 0.0331651 0 0.0353366 0.0445119 0
          0.0297657 0.046752 0 -0.0845108 0.00744938 0 -0.0925545 0.0185486 0 -0.0933593 0.00881617 0
          -0.0455331 0.0540848 0 0.124134 -0.0903844 0 0.124881 -0.0827749 0 0.018085 -0.18838 0
          0.0181338 0.188426 0 -0.0756646 -0.136113 0 -0.136296 -0.0621187 0 -0.137572 -0.0582232 0
          -0.129027 -0.0711194 0 0.0723055 -0.169912 0 0.0746457 -0.167638 0 0.0713971 -0.163657 0
          -0.0966155 0.128549 0 0.0534432 -0.0106731 0 0.0522445 -0.0236847 0 0.0606968 -0.0208119 0
          -0.0662518 0.0795886 0 -0.00506742 0.0506967 0 -0.012916 0.0404206 0 -0.000470318 0.037648 0
          -0.110885 0.0249646 0 -0.0601744 -0.0763896 0 0.00144196 0.00560318 0 -0.045727 -0.0527246 0
          -1.98004e-08 3.44562e-09 0 0.0427452 -0.00915059 0 0.0288342 -0.0108694 0 0.0175038 -0.0558509 0
          0.0221082 -0.0543722 0 -0.0966457 -0.128505 0 0.00143262 -0.00558157 0 0.138154 -0.0543849 0
          0.146693 -0.0399602 0 0.139567 -0.0467809 0 -0.109964 0.0130931 0 -0.111234 0.00773585 0
          0.0427345 -0.0415865 0 0.0365457 0.0918201 0 -0.00439348 0.0696588 0 -0.00442393 -0.0696211 0
          -0.110344 -0.0054104 0 0.106457 0.0651537 0 0.0948282 0.0634319 0 0.106071 0.0555948 0
          -0.0381131 0.182612 0 -0.0342069 0.181448 0 -0.0354396 0.185783 0 -0.148133 0.0371745 0
          -0.0342423 -0.181413 0 -0.0381479 -0.182577 0 -0.0354748 -0.185748 0 0.0433267 -0.114304 0
          0.0447321 -0.124793 0 0.0494302 -0.12162 0 0.141897 -0.0249747 0 0.1336 -0.0360951 0
          -0.0129118 -0.0403752 0 -0.00506562 -0.050675 0 -0.000621585 -0.0375722 0 -0.0886157 0.137515 0
          -0.0929253 0.141092 0 -0.0988833 -0.0849337 0 -0.0886448 -0.137475 0 -0.0929558 -0.141051 0
          -0.035629 -0.0195395 0 0.0791345 0.106253 0 0.0801712 0.116935 0 0.0350111 0.0292213 0
          0.0871673 0.0815688 0 0.091187 0.0717925 0 0.0791252 0.0734016 0 -0.135834 0.00474129 0
          -0.132867 0.00606829 0 -0.133001 0.0113601 0 0.0244618 -0.17742 0 0.0288511 -0.176057 0
          0.0244232 -0.171296 0 -0.0701613 -0.070086 0 -0.000911206 -0.0451431 0 0.00658221 -0.0368117 0
          0.00115933 -0.0265361 0 0.112592 -0.0852718 0 0.103582 -0.0943945 0 0.00659683 0.0368611 0
          -0.000887818 0.045184 0 0.00117884 0.0265743 0 0.0289071 0.176109 0 0.0245155 0.17747 0
          0.024478 0.171347 0 -0.146623 0.0269246 0 -0.148026 0.0173002 0 -0.144327 0.024954 0
          0.0470863 -0.109468 0 0.0632002 0.0773202 0 0.0697342 0.0730641 0 0.0599329 0.066368 0
          -0.0657475 -0.0851832 0 0.0673551 -0.0161342 0 0.0404061 -0.0411208 0 0.0448972 -0.0855059 0
          0.0486233 -0.0763939 0 0.0418652 -0.0764463 0 0.148984 -0.000351014 0 0.149151 0.0153658 0
          -0.0796977 -0.0256954 0 -0.0722774 -0.0380939 0 -0.0758114 -0.0214199 0 0.0196316 -0.114478 0
          -0.0958987 -0.0130971 0 -0.048582 -0.0238861 0 -0.0134813 0.069493 0 -0.0114805 -0.116869 0
          -0.00574894 -0.115344 0 0.00232359 -0.116887 0 -0.0662758 -0.0795432 0 0.0914514 -0.069426 0
          -0.0269126 0.106523 0 -0.0231337 0.116846 0 -0.0277245 0.118687 0 0.00800557 -0.159927 0
          0.12094 0.0627172 0 0.1212 0.0698354 0 0.107623 0.0729717 0 0.0080537 0.159972 0
          -0.132592 0.0592349 0 -0.133274 0.051248 0 -0.023169 -0.116809 0 -0.0269463 -0.106486 0
          -0.0277584 -0.11865 0 0.00835374 -0.124664 0 0.00281668 -0.117695 0 0.00493142 -0.131293 0
          0.0745856 0.0503391 0 0.0961899 0.0592883 0 -0.0716309 0.0998733 0 -0.0789587 0.0919093 0
          -0.0648848 0.0937842 0 0.00286124 0.117736 0 0.00840076 0.124709 0 0.00490224 0.131319 0
          -0.000475411 -0.163941 0 -0.00361303 -0.156152 0 -0.000430589 0.163983 0 -0.00356918 0.156193 0
          -0.148551 -0.0344343 0 0.117603 0.109529 0 0.115285 0.115013 0 0.112654 0.105881 0
          -0.134013 -0.0128185 0 -0.137635 -0.00595456 0 -0.13847 -0.0116671 0 0.0251487 0.0582114 0
          -0.128381 -0.00177293 0 0.142891 0.0339345 0 0.132125 0.0499014 0 0.133457 0.0399371 0
          0.039288 -0.0721361 0 0.0518285 -0.105357 0 0.0525181 -0.111143 0 0.0398552 -0.10924 0
          -0.0682809 0.119477 0 -0.0732809 0.116339 0 0.02432 -0.0563638 0 0.00295996 -0.195623 0
          0.00569202 -0.195509 0 0.00422258 -0.191468 0 0.00573521 0.195552 0 0.00300219 0.195665 0
          0.00426606 0.191511 0 -0.0683036 -0.119437 0 -0.0733032 -0.116297 0 0.0471597 0.109386 0
          -0.0778578 0.165553 0 -0.0804614 0.163067 0 -0.0765927 0.16018 0 -0.0804922 -0.163031 0
          -0.0778886 -0.165517 0 -0.076623 -0.160144 0 -0.113578 0.0866062 0 -0.00762228 0.109132 0
          -0.0234991 0.110114 0 -0.0184719 0.105312 0 -0.140331 -0.0170019 0 -0.13722 -0.0571762 0
          0.101251 0.096826 0 -0.00630004 0.0305445 0 -0.0131683 0.174109 0 -0.0132087 -0.174071 0
          0.0579867 0.0355486 0 0.045966 0.0335201 0 0.0491731 0.0272044 0 -0.00633171 -0.0305054 0
          0.115123 -0.114982 0 0.117437 -0.109504 0 0.11249 -0.105856 0 0.0347778 0.0256526 0
          0.0467896 -0.181618 0 -0.134825 0.0207655 0 0.0468527 0.181672 0 -0.0699232 0.128535 0
          -0.0819105 0.0781885 0 0.0304429 -0.0300222 0 -0.119302 0.0416524 0 0.0865409 0.0850995 0
          -0.069948 -0.128497 0 -0.0604982 -0.0462923 0 -0.0577129 0.0694507 0 -0.0578086 0.063409 0
          -0.111978 0.0576707 0 1.17769e-08 -5.59087e-09 0 -0.017531 0.017398 0 -0.0434511 -0.110915 0
          0.000889446 -0.126483 0 0.0523247 0.026189 0 0.105263 -0.0129682 0 0.0989574 -0.00851826 0
          0.106626 -0.00923355 0 0.000934163 0.126525 0 -2.09163e-08 1.02632e-09 0 0.0954816 0.110948 0
          0.100224 0.118966 0 0.0956125 0.120938 0 0.0906411 0.0949087 0 0.0989557 0.09422 0
          0.103807 0.0871723 0 -0.0342521 0.170896 0 0.0830362 -0.0994797 0 -0.0342874 -0.170861 0
          0.0687902 -0.0309432 0 0.0625342 -0.0381586 0 0.109558 0.112491 0 -0.106322 0.00723841 0
          -0.106139 0.00256381 0 -0.110758 0.00625855 0 0.0832452 0.100536 0 0.075856 0.0980356 0
          0.0780873 0.0876246 0 -0.0785115 0.0311433 0 0.0282867 0.0359733 0 0.0289432 -0.096897 0
          0.0182256 -0.100285 0 0.0761572 -0.107013 0 -0.00909336 0.113312 0 0.116099 0.066243 0
          -0.112383 0.0446736 0 -0.0874716 0.125387 0 -0.0845864 0.132205 0 -0.0249109 0.0728022 0
          0.0262092 -0.110382 0 -0.0709711 0.136744 0 -0.0650226 0.130274 0 -0.0662028 0.138653 0
          -0.107818 0.00770893 0 -0.0983825 0.0167517 0 -0.0874983 -0.125344 0 -0.0846138 -0.132164 0
          0.0642747 -0.0726536 0 0.0669426 -0.0850547 0 -0.0650477 -0.130236 0 -0.0709977 -0.136706 0
          -0.0662297 -0.138616 0 0.156119 0.00921748 0 -0.0577341 0.0996338 0 -0.152549 0.0285791 0
          -0.152635 0.0245067 0 0.0546401 -0.105835 0 0.0627753 0.149293 0 0.0601429 0.154334 0
          0.0585404 0.145834 0 0.103635 -0.0152484 0 0.105632 -0.0233085 0 -0.0537571 0.109489 0
          -0.0576671 0.10489 0 -0.0552918 0.0961048 0 -0.0421659 0.171673 0 -0.0418266 0.176812 0
          0.0592587 -0.0789877 0 0.0511932 -0.0871074 0 0.0670257 -0.0857395 0 -0.0421997 -0.171638 0
          -0.0418607 -0.176777 0 -0.146458 0.0435548 0 -0.139258 0.0558189 0 -0.0585596 -0.107792 0
          -0.0576102 -0.101107 0 -0.0719896 -0.100846 0 0.109402 -0.112458 0 -0.00805461 -0.182202 0
          -0.00431333 -0.182388 0 -0.00510557 -0.177741 0 -0.0576853 -0.10485 0 -0.053777 -0.109449 0
          -0.0553062 -0.0960645 0 -0.00427098 0.182428 0 -0.0080133 0.182241 0 -0.00506303 0.177781 0
          0.0396263 -0.146578 0 0.0356404 -0.144739 0 0.0167283 -0.107091 0 0.0396953 0.146639 0
          0.0357057 0.1448 0 -0.11099 0.0112706 0 -0.102965 0.0154266 0 -0.112445 0.018372 0
          -0.0186934 0.0990696 0 -0.0153277 0.109131 0 -0.00553204 0.103796 0 -0.014856 0.115843 0
          -0.018105 0.108894 0 0.0859009 0.157412 0 0.0837091 0.160186 0 0.0818797 0.153487 0
          -0.0585886 0.0436052 0 -0.0148938 -0.115805 0 -0.018141 -0.108857 0 -0.0438506 0.120398 0
          -0.136813 -0.0446603 0 -0.128549 -0.0480485 0 -0.130115 -0.0592842 0 -0.00855215 -0.157476 0