<?xml version="1.0"?>
<VTKFile type="UnstructuredGrid" version="0.1" byte_order="LittleEndian">
  <UnstructuredGrid>
    <Piece NumberOfCells="7332" NumberOfPoints="21996">
      <PointData Scalars="displacement">
        <DataArray type="Float32" Name="displacement" NumberOfComponents="3" format="ascii">
          0.0869055 -0.0546261 0 0.0968478 -0.0717516 0 0.0871579 -0.068304 0 0.0575101 -0.169919 0
          0.0494962 -0.176033 0 0.0386769 -0.180665 0 -5.94191e-08 -6.26212e-09 0 -2.4952e-08 -2.31519e-09 0
          0.030285 -0.0248989 0 -0.0540265 0.175525 0 -0.065243 0.157428 0 -0.0580771 0.167581 0
          -0.0742149 0.140811 0 -0.0652428 0.157428 0 -0.065605 0.160693 0 0.104348 0.110428 0
          0.0949496 0.126937 0 0.103186 0.116304 0 0.110449 5.84285e-06 0 0.103293 0.00166135 0
          0.104905 -0.0173314 0 0.0548454 -0.164451 0 0.0558708 -0.168168 0 0.039944 -0.174785 0
          0.00655917 -0.13537 0 -0.00196451 -0.128038 0 -0.0020707 -0.139954 0 0.124387 0.0568565 0
          0.125277 0.0507952 0 0.12264 0.0670321 0 0.0322323 -0.1401 0 0.0334051 -0.124376 0
          0.048595 -0.133792 0 0.119633 -0.0244434 0 0.117009 -0.0453203 0 0.121474 -0.0423566 0
          -0.00876903 0.173098 0 -0.00325875 0.171042 0 -0.00504662 0.176927 0 0.0153728 -0.193295 0
          0.0300747 -0.187632 0 0.0302271 -0.189447 0 -0.00159648 0.232779 0 -0.000698492 0.233345 0
          -0.00117591 0.233603 0 -0.0229539 -0.146643 0 -0.0282523 -0.155098 0 -0.0203528 -0.158311 0
          -0.000742605 -0.233312 0 -0.00164027 -0.232745 0 -0.00122131 -0.233571 0 -0.0236188 -0.0792767 0
          -0.0300485 -0.0686637 0 -0.0271426 -0.0910174 0 -0.0218423 0.144728 0 -0.0156674 0.141025 0
          -0.0171445 0.146843 0 -0.0283485 -0.0176854 0 -1.79127e-07 2.39757e-08 0 -0.0234601 -0.018195 0
          -0.0674072 0.132986 0 -0.0704699 0.136315 0 -0.073198 0.118064 0 -0.0509805 0.174191 0
          -0.0516839 0.175244 0 -0.0375215 0.182502 0 0.030285 -0.024899 0 2.07025e-08 6.07973e-09 0
          0.0245012 -0.0167333 0 -0.00334701 -0.219273 0 -0.000215482 -0.22076 0 -0.000656044 -0.218167 0
          0.0830652 -0.136725 0 0.0693906 -0.147655 0 0.0687061 -0.140295 0 -0.000171287 0.220747 0
          -0.00330442 0.219259 0 -0.000613168 0.218151 0 -0.00259666 0.223731 0 -0.000314417 0.222268 0
          0.000292935 0.224314 0 0.0414943 -0.190052 0 0.0418992 -0.190758 0 0.0324027 -0.199102 0
          -0.0291171 0.184061 0 -0.0509805 0.174191 0 -0.0375215 0.182502 0 -0.00546951 -0.172043 0
          -0.00711716 -0.178181 0 -0.00111015 -0.178502 0 0.0845196 -0.133565 0 0.0917716 -0.108529 0
          0.0828781 -0.12922 0 -0.0512054 -0.175574 0 -0.0497845 -0.174946 0 -0.03744 -0.182587 0
          -0.00709871 0.178136 0 -0.00545609 0.171995 0 -0.00109506 0.178457 0 -0.0618188 0.0279117 0
          -0.079114 0.0299465 0 -0.0807907 0.0414473 0 -0.0497845 -0.174946 0 -0.0292099 -0.184168 0
          -0.03744 -0.182587 0 0.063974 -0.110105 0 0.0636283 -0.0891706 0 0.0604944 -0.100283 0
          0.0980053 -0.0596293 0 0.0968478 -0.0717516 0 0.0869055 -0.0546261 0 0.0629698 0.167102 0
          0.073645 0.156905 0 0.0772736 0.153451 0 -0.00183426 0.233239 0 -0.00159648 0.232779 0
          -0.00117592 0.233603 0 -0.00164026 -0.232746 0 -0.00187959 -0.233207 0 -0.00122132 -0.233571 0
          -0.0272129 -0.20732 0 -0.023583 -0.20852 0 -0.0204541 -0.212756 0 0.0776531 -0.131078 0
          0.0830652 -0.136725 0 0.0687061 -0.140295 0 -0.0235465 0.208532 0 -0.0271729 0.207319 0
          -0.0204145 0.212765 0 0.0623344 0.0967665 0 0.0586521 0.115676 0 0.0565091 0.103787 0
          -0.114269 -0.0943257 0 -0.115738 -0.0773365 0 -0.121446 -0.0682753 0 -0.00125717 0.225652 0
          -0.00259656 0.223731 0 0.000293029 0.224314 0 -0.00843345 -0.223827 0 -0.00902746 -0.224816 0
          -0.00675625 -0.226206 0 -0.116533 0.0329383 0 -0.122729 0.0354683 0 -0.119935 0.0177985 0
          0.00623872 -0.168823 0 0.0017266 -0.17397 0 0.00673845 -0.175708 0 -0.00898532 0.224818 0
          -0.00839086 0.223825 0 -0.00671331 0.226208 0 2.15523e-08 1.56193e-08 0 0.0431435 -0.0126473 0
          0.0332907 -0.0142634 0 -0.00422331 -0.214495 0 -0.00149334 -0.211687 0 -0.00517725 -0.209143 0
          0.00173473 0.173925 0 0.00624328 0.168781 0 0.0067482 0.175664 0 0.00654248 0.129291 0
          0.0164111 0.120579 0 0.010436 0.13637 0 -0.00145387 0.211663 0 -0.00418268 0.214474 0
          -0.00513885 0.209117 0 -0.026007 0.0745147 0 -0.0255468 0.0587857 0 -0.0111663 0.0730746 0
          0.080217 -0.0937942 0 0.0682233 -0.0811103 0 0.0803368 -0.0819943 0 0.063404 -0.124422 0
          0.0466441 -0.121969 0 0.0501022 -0.11075 0 -0.00382128 0.22992 0 -0.00301937 0.231213 0
          -0.00396048 0.230718 0 -0.00306131 -0.231178 0 -0.0038615 -0.229884 0 -0.00400232 -0.230683 0
          0.0145802 -0.158606 0 -0.00343551 -0.152784 0 0.0166208 -0.148113 0 -0.0807907 0.0414473 0
          -0.0791141 0.0299465 0 -0.0897858 0.0392792 0 -0.00105522 0.101567 0 -0.0111956 0.0993965 0
          -0.00392393 0.0915381 0 -0.00202884 -0.229592 0 -0.000714981 -0.231373 0 -0.000124988 -0.230317 0
          0.00235021 -0.226819 0 0.00349462 -0.224763 0 0.0013102 -0.225742 0 -0.000668409 0.231384 0
          -0.0019835 0.229598 0 -7.76965e-05 0.230324 0 0.00354366 0.224757 0 0.0023992 0.226816 0
          0.00135762 0.225738 0 -0.126971 0.0215444 0 -0.128246 -0.00235537 0 -0.125775 0.00343511 0
          -0.109737 0.089528 0 -0.103751 0.110916 0 -0.10936 0.103283 0 -0.000698435 0.233345 0
          0.00010977 0.233008 0 -0.000229302 0.23377 0 -0.0491959 -0.179859 0 -0.0584937 -0.171522 0
          -0.0430828 -0.183648 0 -0.119313 -0.0817768 0 -0.111678 -0.102396 0 -0.114269 -0.0943256 0
          6.68704e-05 -0.232975 0 -0.000742547 -0.233312 0 -0.000273913 -0.233738 0 0.0331105 -0.0188658 0
          -2.92875e-08 2.41482e-09 0 0.0332906 -0.0142634 0 0.0778178 -0.0706859 0 0.0852554 -0.0622245 0
          0.0776093 -0.0534319 0 -0.0422289 -0.029769 0 -0.0283485 -0.0176854 0 -0.0234601 -0.018195 0
          0.115365 -0.0768594 0 0.110134 -0.096475 0 0.107966 -0.0884542 0 -0.0255469 0.0587856 0
          -0.0057873 0.0507808 0 -0.0111663 0.0730746 0 0.0664289 -0.0562742 0 0.0789701 -0.0585663 0
          0.0803303 -0.0687198 0 0.0102875 -0.0926468 0 0.0147229 -0.0768134 0 0.00389385 -0.0832863 0
          -0.10682 0.107393 0 -0.0971951 0.125617 0 -0.0994039 0.114229 0 0.034938 -0.150115 0
          0.0350975 -0.161987 0 0.0417042 -0.153366 0 0.00262079 0.222005 0 0.00269514 0.224484 0
          0.00029297 0.224314 0 -0.00746365 -0.21342 0 -0.00848879 -0.21073 0 -0.0103238 -0.211406 0
          -0.00835166 0.223624 0 -0.00890149 0.222066 0 -0.0066094 0.223251 0 -0.0094829 0.220393 0
          -0.0100459 0.218607 0 -0.00774609 0.219592 0 0.0864462 -0.0213803 0 0.0663943 -0.0161785 0
          0.0835351 -0.0127756 0 -0.0831812 -0.0563751 0 -0.0891633 -0.0423497 0 -0.0913767 -0.0641512 0
          0.0769374 0.119989 0 0.0778905 0.130814 0 0.0878699 0.122574 0 -0.0962869 -0.0630017 0
          -0.0887582 -0.0709589 0 -0.0997068 -0.0827899 0 -0.0938678 -0.00526878 0 -0.110901 -0.00237819 0
          -0.0972614 0.00799921 0 -0.0580771 0.167581 0 -0.0652429 0.157428 0 -0.0659313 0.150976 0
          0.00514862 -0.11223 0 0.0141563 -0.120327 0 0.014732 -0.1104 0 -0.110901 -0.0023782 0
          -0.108727 0.0129564 0 -0.0972614 0.00799921 0 -0.00499243 -0.224387 0 -0.00269617 -0.223649 0
          -0.00510709 -0.222655 0 -0.0464819 -0.0796893 0 -0.0496878 -0.064212 0 -0.0531593 -0.0895994 0
          0.101347 0.0826113 0 0.105927 0.0665391 0 0.107254 0.0813637 0 0.0075828 -0.206101 0
          0.00397253 -0.208706 0 0.00520388 -0.211116 0 0.0141562 -0.120327 0 0.00514859 -0.11223 0
          0.00306349 -0.122001 0 0.0445673 0.109285 0 0.0442962 0.0943456 0 0.0495453 0.0904384 0
          0.066908 0.0831888 0 0.0686166 0.101432 0 0.0623343 0.0967665 0 -1.47978e-07 2.46161e-08 0
          7.22793e-07 -4.28761e-08 0 -0.0191008 -0.0362275 0 0.074456 0.103957 0 0.0693426 0.12021 0
          0.0686166 0.101432 0 -0.0799339 0.0889858 0 -0.0834238 0.107041 0 -0.0863729 0.0765134 0
          -0.0111955 0.0993965 0 -0.0103103 0.0833128 0 -0.00392388 0.091538 0 0.0427705 0.142519 0
          0.0413787 0.127997 0 0.0480167 0.130732 0 0.0322332 0.0201547 0 0.0232631 0.0100266 0
          0.0312744 0.00666357 0 -0.0719662 0.15735 0 -0.0629166 0.167419 0 -0.0803888 0.148069 0
          0.0221542 -0.144171 0 0.0226255 -0.137897 0 0.015109 -0.141887 0 -0.0417232 0.165396 0
          -0.0482855 0.156781 0 -0.0434665 0.156063 0 -0.0680723 -0.160418 0 -0.0801746 -0.148152 0
          -0.0637544 -0.160158 0 0.0508363 0.0758146 0 0.05612 0.08808 0 0.0495452 0.0904383 0
          -0.00301938 0.231213 0 -0.0038213 0.22992 0 -0.00247359 0.230574 0 0.124361 -0.0300405 0
          0.119633 -0.0244434 0 0.121474 -0.0423566 0 -0.00386152 -0.229884 0 -0.00306132 -0.231178 0
          -0.00251394 -0.230537 0 -0.0191125 0.170654 0 -0.019625 0.16607 0 -0.0136673 0.169398 0
          8.89302e-08 7.03533e-09 0 0.0196234 -0.034767 0 0.0152718 -0.0381845 0 0.0110582 0.220046 0
          0.0148869 0.218124 0 0.0106946 0.22279 0 0.0553624 -0.0990969 0 0.0523662 -0.080786 0
          0.0501663 -0.0909076 0 -0.113376 -0.0594073 0 -0.106494 -0.0454966 0 -0.105166 -0.0603861 0
          0.0635247 -0.128248 0 0.0580202 -0.138412 0 0.0589141 -0.145834 0 0.0133977 0.0425935 0
          0.0239485 0.045168 0 0.0209395 0.0590881 0 -0.0202127 0.161204 0 -0.0207422 0.156052 0
          -0.0144488 0.158553 0 -0.0971951 0.125617 0 -0.091326 0.127111 0 -0.0994039 0.114229 0
          -0.0482855 0.156781 0 -0.0474558 0.145539 0 -0.0434664 0.156063 0 0.0150274 -0.217764 0
          0.0110223 -0.22 0 0.0106593 -0.22273 0 -1.56807e-08 -1.90593e-08 0 1.27743e-08 3.22381e-09 0
          0.00928094 0.00916402 0 -0.0891633 -0.0423497 0 -0.0831812 -0.0563751 0 -0.0800271 -0.034796 0
          -0.0713762 -0.0727029 0 -0.068776 -0.0867153 0 -0.0625343 -0.0689555 0 0.0335032 0.0212731 0
          -4.84867e-08 -3.02251e-08 0 0.0263703 0.0190618 0 0.0541382 0.176135 0 0.0609054 0.164867 0
          0.0634619 0.162611 0 0.0225808 0.137846 0 0.0221187 0.144117 0 0.0150636 0.141824 0
          0.0239031 0.209736 0 0.0187283 0.215357 0 0.0255756 0.209383 0 0.00349458 -0.224763 0
          0.00235017 -0.226819 0 0.0040181 -0.226598 0 0.00239915 0.226817 0 0.00354363 0.224757 0
          0.004069 0.226595 0 0.00444983 -0.222562 0 0.00236262 -0.222156 0 0.00349485 -0.224763 0
          0.0101456 -0.172445 0 0.00623871 -0.168823 0 0.00673846 -0.175709 0 0.00240909 0.222146 0
          0.00449842 0.222552 0 0.00354389 0.224757 0 0.00624328 0.168781 0 0.0101516 0.172401 0
          0.00674821 0.175665 0 -0.0433697 -0.170723 0 -0.0369338 -0.182442 0 -0.0384773 -0.174364 0
          0.00172656 -0.17397 0 -0.00546947 -0.172044 0 -0.00111011 -0.178502 0 0.0226256 -0.137897 0
          0.0160937 -0.134078 0 0.0151091 -0.141887 0 0.0186698 -0.215308 0 0.0238439 -0.20967 0
          0.0255103 -0.209334 0 0.0672668 0.139102 0 0.0693426 0.12021 0 0.0734341 0.123872 0
          -0.0672559 0.162619 0 -0.0509805 0.174191 0 -0.053375 0.170501 0 0.0820022 0.0940769 0
          0.0796807 0.0734997 0 0.0854631 0.081691 0 -0.0584887 0.171509 0 -0.0491747 0.179865 0
          -0.0431339 0.183629 0 -0.00545606 0.171995 0 0.00173469 0.173924 0 -0.00109502 0.178457 0
          0.0196234 -0.034767 0 0.0289707 -0.0609805 0 0.0152717 -0.0381845 0 -0.0353804 0.0859146 0
          -0.032465 0.102795 0 -0.0414233 0.0999367 0 -0.0145943 -0.199686 0 -0.0140537 -0.202528 0
          -0.0108036 -0.201228 0 -0.000447203 0.152277 0 0.00265979 0.160987 0 -0.00570453 0.156703 0
          0.0524151 0.177439 0 0.0598776 0.164105 0 0.0609055 0.164868 0 0.0103252 0.188876 0
          0.0142042 0.191442 0 0.0233524 0.187986 0 -0.023583 -0.20852 0 -0.0143669 -0.21563 0
          -0.0204542 -0.212756 0 0.000844847 -0.197997 0 -0.00199079 -0.194969 0 -0.0036796 -0.200008 0
          -0.0143272 0.215646 0 -0.0235466 0.208532 0 -0.0204145 0.212765 0 -0.0672559 0.162619 0
          -0.0719603 0.158415 0 -0.0609743 0.168231 0 0.0686014 0.0818469 0 0.0787768 0.0950856 0
          0.0788636 0.0821154 0 -0.000215576 -0.220759 0 -0.00334708 -0.219273 0 -0.00180141 -0.222061 0
          0.0718331 -0.15796 0 0.0675976 -0.161896 0 0.0579903 -0.172002 0 -0.0033045 0.219259 0
          -0.000171381 0.220747 0 -0.00175737 0.222052 0 -0.0221356 0.159532 0 -0.036536 0.152948 0
          -0.0312131 0.162724 0 -0.0866642 -0.135418 0 -0.0915107 -0.133132 0 -0.0802591 -0.147849 0
          0.0949496 0.126937 0 0.104348 0.110428 0 0.0933446 0.124036 0 -3.95962e-07 4.58342e-08 0
          -0.0191007 -0.0362275 0 -0.0222037 -0.0327208 0 -0.0143669 -0.21563 0 -0.0235831 -0.20852 0
          -0.0138604 -0.212672 0 -0.0235466 0.208532 0 -0.0143272 0.215646 0 -0.0138213 0.212692 0
          0.00269523 0.224484 0 0.000997557 0.225991 0 0.000293062 0.224314 0 -0.115738 -0.0773365 0
          -0.114269 -0.0943257 0 -0.109103 -0.100087 0 0.0129852 -0.191406 0 0.0102113 -0.188889 0
          0.023468 -0.187976 0 0.10656 -0.112879 0 0.0971139 -0.122897 0 0.106356 -0.108983 0
          -0.0090274 -0.224815 0 -0.00843338 -0.223827 0 -0.0117511 -0.221086 0 0.0323253 -0.192618 0
          0.0243951 -0.194395 0 0.0418355 -0.185801 0 -0.00963185 -0.213602 0 -0.00746357 -0.21342 0
          -0.0103238 -0.211406 0 -0.0907966 -0.0163803 0 -0.0938677 -0.00526877 0 -0.0698292 -0.00568074 0
          -0.00839079 0.223825 0 -0.00898526 0.224818 0 -0.0117094 0.221082 0 -0.119313 -0.0817768 0
          -0.114269 -0.0943257 0 -0.121446 -0.0682753 0 -0.0394101 -0.060514 0 -0.0222036 -0.0327209 0
          -0.0330162 -0.0596897 0 -0.0584937 -0.171522 0 -0.0554418 -0.174116 0 -0.0430828 -0.183648 0
          -0.0282524 -0.155098 0 -0.0208776 -0.167876 0 -0.0203528 -0.158311 0 -0.114402 -0.093069 0
          -0.119313 -0.0817767 0 -0.117005 -0.0816689 0 -0.00830682 -0.168821 0 -0.0111428 -0.173142 0
          -0.00549306 -0.174247 0 -0.116533 0.0329382 0 -0.117408 0.052782 0 -0.122729 0.0354683 0
          0.0160475 0.134034 0 0.0225809 0.137846 0 0.0150637 0.141824 0 -0.0378458 0.192283 0
          -0.0395848 0.189592 0 -0.0488869 0.182056 0 -0.113376 -0.0594073 0 -0.115605 -0.0434205 0
          -0.106494 -0.0454966 0 0.0686014 0.0818469 0 0.0788635 0.0821154 0 0.0662893 0.0699515 0
          0.0196233 -0.034767 0 7.57015e-08 -4.77609e-09 0 0.022063 -0.0308371 0 -0.0540265 0.175525 0
          -0.0501769 0.179853 0 -0.0446278 0.187357 0 0.00505315 0.227143 0 0.00330971 0.228136 0
          0.00453355 0.225218 0 0.000817993 0.233154 0 0.00148936 0.232722 0 0.00185459 0.232201 0
          0.00144637 -0.232689 0 0.000774277 -0.233125 0 0.00181131 -0.232169 0 0.000864053 -0.226065 0
          0.0033513 -0.224195 0 0.000526381 -0.224136 0 0.00327409 -0.228094 0 0.00500948 -0.227101 0
          0.00448691 -0.225422 0 -0.0218549 -0.192158 0 -0.0287074 -0.183412 0 -0.0248439 -0.194214 0
          0.0685298 0.0556548 0 0.0597377 0.0466907 0 0.0620602 0.0370319 0 -0.00466678 0.199433 0
          -0.0085311 0.19821 0 -0.0062347 0.195082 0 -0.036536 0.152948 0 -0.0437997 0.157982 0
          -0.0312131 0.162724 0 -0.0273748 -0.192221 0 -0.0368346 -0.189135 0 -0.0430828 -0.183648 0
          0.0358467 0.176404 0 0.0316276 0.187102 0 0.0306893 0.180363 0 0.060232 -0.111263 0
          0.063404 -0.124422 0 0.0501022 -0.11075 0 -0.0464819 -0.0796893 0 -0.0531593 -0.0895994 0
          -0.048874 -0.0929269 0 0.00505779 0.112174 0 0.014066 0.12027 0 0.00305176 0.121968 0
          -0.0286621 0.183369 0 -0.0218133 0.192111 0 -0.0246343 0.194527 0 0.116985 0.0874464 0
          0.116385 0.0820071 0 0.111134 0.101275 0 0.0457305 0.0393131 0 0.0494328 0.0578253 0
          0.0411698 0.0418442 0 0.0617461 0.0784312 0 0.066908 0.0831888 0 0.0623343 0.0967665 0
          -0.0511553 0.0581907 0 -0.0506041 0.051068 0 -0.063454 0.0668053 0 -0.0069658 0.0864983 0
          -0.00868751 0.102339 0 -0.016513 0.0939837 0 -0.0104935 0.0625846 0 0.00203904 0.0652448 0
          -0.00113292 0.0793041 0 -0.121446 -0.0682753 0 -0.115738 -0.0773366 0 -0.120365 -0.053527 0
          0.0787768 0.0950856 0 0.0686014 0.0818469 0 0.0673857 0.0948107 0 2.69106e-08 -6.10923e-09 0
          -8.35597e-09 3.24686e-08 0 0.0331105 -0.0188658 0 0.0710904 -0.0677455 0 0.0664289 -0.0562742 0
          0.0803303 -0.0687198 0 0.00241405 -0.15548 0 -0.00012403 -0.147398 0 -0.00406576 -0.156063 0
          0.00335122 -0.224195 0 0.00234232 -0.221887 0 0.000526279 -0.224136 0 0.0016448 -0.232184 0
          0.00129672 -0.23103 0 0.000351548 -0.231497 0 0.00134621 0.231038 0 0.00169536 0.232195 0
          0.000399633 0.231507 0 -0.0610375 -0.137035 0 -0.0613649 -0.150098 0 -0.0560581 -0.155765 0
          -0.105621 -0.112659 0 -0.114269 -0.0943256 0 -0.105456 -0.115255 0 4.34254e-09 1.07434e-08 0
          -2.79382e-08 -1.57866e-08 0 0.00928094 0.00916401 0 -0.0208511 0.16783 0 -0.0280911 0.156166 0
          -0.0206028 0.157844 0 -0.0735568 0.147508 0 -0.0826143 0.124948 0 -0.0742148 0.140811 0
          0.0277511 0.204845 0 0.0380022 0.196011 0 0.0325781 0.199526 0 0.0774009 0.0537633 0
          0.0796807 0.0734997 0 0.0740699 0.0599948 0 -0.0128881 0.207819 0 -0.0134482 0.205262 0
          -0.0103325 0.206557 0 0.0514811 0.0162662 0 0.0342025 0.0153932 0 0.0655631 0.0282767 0
          0.0140661 0.12027 0 0.00505782 0.112174 0 0.0146301 0.110323 0 -0.11862 0.0781247 0
          -0.12158 0.0581733 0 -0.116185 0.0722338 0 -0.0135201 -0.118606 0 -0.0186212 -0.129295 0
          -0.0093178 -0.131328 0 -0.0368912 0.189077 0 -0.0274042 0.192219 0 -0.0431339 0.183629 0
          -0.0368347 -0.189135 0 -0.0273748 -0.192221 0 -0.025744 -0.194562 0 -0.014036 0.202561 0
          -0.0145899 0.199711 0 -0.011186 0.201228 0 0.0587559 0.170533 0 0.0541382 0.176135 0
          0.0634619 0.162611 0 -0.0353803 0.0859146 0 -0.0414232 0.0999366 0 -0.0401121 0.0727244 0
          -0.00274774 0.230411 0 -0.00067807 0.231152 0 -0.00293568 0.229297 0 0.0864462 -0.0213803 0
          0.0803147 -0.0270385 0 0.0663943 -0.0161785 0 -0.000721583 -0.231127 0 -0.00279093 -0.230391 0
          -0.00297889 -0.229275 0 -0.0276777 0.199767 0 -0.0164287 0.204642 0 -0.0259934 0.198653 0
          -0.00632839 -0.226454 0 -0.0106966 -0.223427 0 -0.00632636 -0.224755 0 0.0306894 0.180363 0
          0.0316276 0.187102 0 0.0269887 0.192065 0 -0.0106551 0.223438 0 -0.00628587 0.226471 0
          -0.00628351 0.224774 0 -0.00147048 0.191353 0 0.0142043 0.191442 0 0.0103252 0.188876 0
          0.116385 0.0820071 0 0.110573 0.0932538 0 0.111134 0.101275 0 -0.0164708 -0.204619 0
          -0.0277185 -0.199746 0 -0.0259332 -0.198682 0 -0.00671136 -0.217858 0 -0.00400168 -0.218994 0
          -0.00525241 -0.216032 0 -0.0457616 -0.116179 0 -0.0401267 -0.116532 0 -0.0446757 -0.0985728 0
          -0.128246 -0.00235535 0 -0.128263 -0.0104741 0 -0.127759 -0.0243315 0 0.0129852 -0.191406 0
          -0.0014661 -0.191373 0 0.0102113 -0.188889 0 0.0516046 0.104128 0 0.0478042 0.118007 0
          0.0445673 0.109285 0 -0.00163309 0.130581 0 0.000680655 0.141 0 -0.00732305 0.140746 0
          -0.0274042 0.19222 0 -0.0368912 0.189077 0 -0.0259933 0.194469 0 -0.0072991 -0.15589 0
          -0.0119422 -0.146541 0 -0.01616 -0.15103 0 -0.0555998 0.174027 0 -0.0584887 0.171509 0
          -0.0431339 0.183629 0 0.0421627 -0.141971 0 0.0349379 -0.150115 0 0.0417042 -0.153366 0
          0.127025 -0.0154233 0 0.124361 -0.0300405 0 0.126702 -0.0353867 0 -0.00892907 -0.222029 0
          -0.00838211 -0.223585 0 -0.00669044 -0.223202 0 0.0718876 -0.159015 0 0.0748396 -0.155948 0
          0.0842274 -0.145375 0 0.0439304 -0.0781872 0 0.0455453 -0.0959143 0 0.0332419 -0.0829207 0
          -0.0711425 -0.155941 0 -0.0733446 -0.1478 0 -0.0803122 -0.136707 0 -0.113991 0.0869756 0
          -0.109737 0.089528 0 -0.10936 0.103283 0 -0.125146 -0.0436967 0 -0.124476 -0.0585766 0
          -0.121446 -0.0682753 0 0.0239484 0.045168 0 0.0133977 0.0425934 0 0.0167637 0.0302905 0
          -0.0195339 0.184148 0 -0.0291171 0.184061 0 -0.0102974 0.188273 0 0.0187284 0.215357 0
          0.0239031 0.209736 0 0.0151258 0.216042 0 -0.0509805 0.174191 0 -0.0672559 0.162619 0
          -0.0609743 0.168231 0 0.0541382 0.176135 0 0.058756 0.170533 0 0.0512397 0.179622 0
          -0.124476 -0.0585766 0 -0.119313 -0.0817768 0 -0.121446 -0.0682753 0 0.103293 0.00166133 0
          0.110449 5.82477e-06 0 0.107021 0.0168195 0 -0.00749668 0.213668 0 -0.00564252 0.211704 0
          -0.00526874 0.215456 0 -0.105205 -0.0172409 0 -0.117835 -0.0165425 0 -0.110901 -0.00237818 0
          0.0238439 -0.20967 0 0.0186699 -0.215308 0 0.0150677 -0.216001 0 -0.0811862 -0.122652 0
          -0.0889339 -0.126661 0 -0.0903083 -0.11512 0 0.0617461 0.0784312 0 0.0560107 0.0627149 0
          0.0585568 0.0549077 0 -0.0467699 -0.130915 0 -0.0473938 -0.145372 0 -0.042019 -0.140811 0
          -0.0292099 -0.184168 0 -0.0206086 -0.184214 0 -0.010392 -0.188273 0 0.0413786 0.127997 0
          0.0478043 0.118007 0 0.0480166 0.130732 0 0.0346423 0.124721 0 0.0343464 0.139332 0
          0.0490253 0.133781 0 -0.00524438 -0.115437 0 0.00514869 -0.11223 0 -0.00194911 -0.101323 0
          0.08322 -0.0805896 0 0.0852554 -0.0622245 0 0.0778178 -0.0706859 0 -0.00327361 -0.206573 0
          -0.00149323 -0.211687 0 0.000268555 -0.208416 0 -0.0665018 -0.0535996 0 -0.0713762 -0.0727029 0
          -0.0625342 -0.0689555 0 0.0558708 -0.168168 0 0.0548454 -0.164451 0 0.0636259 -0.160973 0
          -0.00145376 0.211663 0 -0.00323677 0.206544 0 0.000306283 0.208388 0 0.0451551 0.183498 0
          0.0504336 0.179917 0 0.0589627 0.171342 0 0.0112364 -0.176243 0 -0.00624923 -0.179267 0
          -0.00795163 -0.173955 0 0.00191261 -0.206096 0 0.00397244 -0.208707 0 0.00508662 -0.203295 0
          0.0731552 -0.156163 0 0.0878436 -0.141434 0 0.0814392 -0.148584 0 0.00654253 0.129291 0
          0.000680611 0.141 0 -0.00163312 0.130581 0 -0.0227038 0.146322 0 -0.0319609 0.13402 0
          -0.0219959 0.135937 0 -0.0791545 -0.0914308 0 -0.0749454 -0.110284 0 -0.0740399 -0.0929551 0
          -0.0185338 -0.174969 0 -0.0179911 -0.179089 0 -0.0142529 -0.177261 0 0.0413787 0.127997 0
          0.0427706 0.142519 0 0.03828 0.140557 0 0.0644004 -0.138653 0 0.0635246 -0.128248 0
          0.058914 -0.145834 0 0.0729057 -0.153266 0 0.0797767 -0.144843 0 0.0830328 -0.145116 0
          -0.0196276 -0.166028 0 -0.0190986 -0.170617 0 -0.0146818 -0.168329 0 0.0494327 0.0578253 0
          0.0457305 0.0393131 0 0.0528999 0.0469464 0 0.0243952 -0.194395 0 0.0323253 -0.192618 0
          0.0186509 -0.198314 0 0.0291118 0.0245072 0 -9.05139e-09 7.71798e-09 0 0.021444 0.0194135 0
          -0.106709 -0.0729852 0 -0.0962869 -0.0630017 0 -0.0997069 -0.0827899 0 0.00802922 0.210848 0
          0.00759208 0.206032 0 0.0117409 0.206535 0 0.0401702 -0.164671 0 0.0360419 -0.175092 0
          0.0425355 -0.169333 0 0.0830652 -0.136725 0 0.0776531 -0.131078 0 0.0872769 -0.127629 0
          -0.042702 -0.178513 0 -0.0369338 -0.182442 0 -0.0433697 -0.170723 0 0.0229818 0.0995896 0
          0.0312033 0.100544 0 0.0245231 0.115093 0 -0.0429144 0.17789 0 -0.0502289 0.164657 0
          -0.044071 0.169719 0 0.0511687 -0.051642 0 0.0569315 -0.0651051 0 0.0415806 -0.0459674 0
          0.0425355 -0.169333 0 0.036042 -0.175092 0 0.0363761 -0.180822 0 -0.110192 0.036027 0
          -0.10096 0.0446584 0 -0.0959931 0.0331851 0 0.0076047 0.226958 0 0.00387356 0.229209 0
          0.00482273 0.229443 0 0.0778905 0.130814 0 0.0769374 0.119989 0 0.068817 0.131069 0
          0.0335032 0.0212731 0 0.0535067 0.0295491 0 0.0203529 0.0110744 0 0.00382911 -0.229175 0
          0.00755988 -0.226918 0 0.00477894 -0.229407 0 -0.0237689 0.0804595 0 -0.0232184 0.0540381 0
          -0.0176602 0.0696056 0 0.0561199 0.0880799 0 0.0623344 0.0967665 0 0.0565091 0.103787 0
          0.114425 0.0963729 0 0.110716 0.103221 0 0.115251 0.0889677 0 -0.0993282 0.1067 0
          -0.106143 0.0896621 0 -0.105899 0.10136 0 0.0136486 -0.202012 0 0.00334033 -0.200625 0
          0.018651 -0.198314 0 0.039931 0.18956 0 0.0449912 0.185901 0 0.0516208 0.179081 0
          0.00359601 -0.232805 0 0.00414631 -0.23217 0 0.00321498 -0.232442 0 0.00420358 0.232181 0
          0.00365303 0.232818 0 0.00326973 0.232453 0 0.0524468 -0.0412628 0 0.0593073 -0.0665905 0
          0.064332 -0.0543242 0 -0.0206086 -0.184214 0 -0.0292099 -0.184168 0 -0.0376997 -0.178902 0
          -0.0368346 -0.189135 0 -0.0491959 -0.179859 0 -0.0430828 -0.183648 0 -0.0501768 0.179853 0
          -0.0540265 0.175525 0 -0.0580772 0.167581 0 0.0993103 -0.0949241 0 0.0917715 -0.108529 0
          0.0910503 -0.119625 0 -0.00936002 0.192265 0 -0.00476068 0.191004 0 -0.0062349 0.195082 0
          0.0948482 -0.0139568 0 0.103293 0.00166134 0 0.094891 0.003641 0 0.0312032 0.100544 0
          0.0229818 0.0995896 0 0.0274112 0.0851586 0 0.0713722 -0.11175 0 0.0736778 -0.087296 0
          0.0684663 -0.0978214 0 -0.00259666 0.223731 0 -0.00486012 0.224425 0 -0.00506746 0.222724 0
          0.00102503 -0.169207 0 0.0112364 -0.176243 0 -0.00795163 -0.173955 0 0.00758281 -0.206101 0
          0.007985 -0.210851 0 0.0118828 -0.206436 0 -0.0156089 0.0512411 0 -0.0232184 0.054038 0
          -0.0143354 0.0358898 0 -0.0291171 0.184061 0 -0.0195339 0.184148 0 -0.0378408 0.178673 0
          -0.00196458 -0.128038 0 0.00655911 -0.13537 0 0.00734019 -0.12491 0 -0.0889339 -0.126661 0
          -0.0811862 -0.122652 0 -0.0757821 -0.132639 0 0.0199448 -0.165618 0 0.0204385 -0.160736 0
          0.0144636 -0.162292 0 -0.0204795 -0.212465 0 -0.0150726 -0.218686 0 -0.0162948 -0.215599 0
          0.0342025 0.0153932 0 0.0535067 0.0295491 0 0.0655631 0.0282767 0 0.0204329 0.160682 0
          0.0199459 0.16557 0 0.0144563 0.162239 0 0.0971139 -0.122897 0 0.10656 -0.112879 0
          0.0966791 -0.1279 0 0.127024 -0.0154233 0 0.126702 -0.0353867 0 0.128262 -0.0162719 0
          -0.0222037 -0.0327209 0 -0.0191007 -0.0362275 0 -0.0330162 -0.0596897 0 0.115767 -0.0412662 0
          0.119086 -0.0552554 0 0.111393 -0.0495206 0 0.0164111 0.120579 0 0.0194506 0.129806 0
          0.010436 0.13637 0 0.0567896 0.163316 0 0.0615206 0.148166 0 0.0629613 0.154476 0
          -0.0502289 0.164657 0 -0.0482855 0.156781 0 -0.044071 0.169719 0 -0.0150323 0.218681 0
          -0.0204406 0.212456 0 -0.0162538 0.215589 0 -0.0846767 -0.133118 0 -0.0711424 -0.155941 0
          -0.0803121 -0.136707 0 0.0485514 0.176571 0 0.0629698 0.167102 0 0.0580532 0.169438 0
          0.0627263 -0.167305 0 0.0494962 -0.176033 0 0.0575101 -0.169919 0 0.0141844 -0.000986961 0
          0.0232631 0.0100266 0 0.0168913 0.0126807 0 0.00743329 -0.141359 0 0.0122892 -0.14946 0
          0.0151089 -0.141887 0 -0.0238954 -0.116647 0 -0.0234329 -0.124505 0 -0.0155253 -0.120928 0
          -0.0558642 0.164649 0 -0.0614863 0.156906 0 -0.0622602 0.148367 0 -0.0401268 -0.116532 0
          -0.0377446 -0.102095 0 -0.0446757 -0.0985729 0 -0.128263 -0.0104742 0 -0.128246 -0.00235536 0
          -0.128462 0.00132143 0 -0.0555997 0.174027 0 -0.0719662 0.15735 0 -0.0672282 0.162003 0
          -0.054438 -0.111374 0 -0.05 -0.103853 0 -0.0531593 -0.0895994 0 -0.00377694 0.232274 0
          -0.00433718 0.231552 0 -0.00329274 0.232012 0 -0.00438121 -0.231517 0 -0.00382228 -0.23224 0
          -0.00333665 -0.231978 0 -0.0094519 -0.0391051 0 -0.0113479 -0.0246679 0 -0.0176926 -0.0498202 0
          -0.0249716 0.203623 0 -0.0120716 0.209739 0 -0.0164287 0.204642 0 -0.0121105 -0.209715 0
          -0.0250037 -0.203605 0 -0.0164709 -0.204619 0 0.103293 0.00166133 0 0.0987188 0.0198441 0
          0.094891 0.00364098 0 0.0535067 0.0295491 0 0.0342025 0.0153932 0 0.0203529 0.0110744 0
          -0.119313 -0.0817767 0 -0.121035 -0.0699137 0 -0.117005 -0.0816689 0 0.0413603 -0.12823 0
          0.0421625 -0.141971 0 0.0476915 -0.131702 0 -0.0887582 -0.0709589 0 -0.0911535 -0.0879938 0
          -0.0997068 -0.0827899 0 -0.0702716 -0.159473 0 -0.0554417 -0.174116 0 -0.0672497 -0.162096 0
          -0.0518388 0.040568 0 -0.0615646 0.0573045 0 -0.0588167 0.0362517 0 0.0672669 0.139102 0
          0.0701866 0.141525 0 0.0629612 0.154476 0 0.00387372 0.229209 0 0.000982304 0.228678 0
          0.00160934 0.230574 0 -0.0255471 0.0587856 0 -0.0240126 0.0380441 0 -0.0057872 0.0507808 0
          0.000937745 -0.228648 0 0.00382927 -0.229175 0 0.00156552 -0.230544 0 0.000584375 0.230992 0
          -0.000563817 0.23179 0 -0.000644159 0.230805 0 -0.0491747 0.179865 0 -0.0368912 0.189077 0
          -0.0431339 0.183629 0 -0.0614863 0.156906 0 -0.0558642 0.164649 0 -0.0557866 0.169179 0
          -0.000605221 -0.231755 0 0.000544516 -0.230956 0 -0.000684357 -0.230769 0 -0.0531594 -0.0895994 0
          -0.0500001 -0.103853 0 -0.048874 -0.092927 0 0.00881125 0.0940184 0 0.0107026 0.110083 0
          0.00143837 0.108278 0 -0.103751 0.110916 0 -0.102097 0.10148 0 -0.0959119 0.121727 0
          0.00635521 -0.223974 0 0.00505775 -0.225673 0 0.00658625 -0.22557 0 0.00510936 0.225668 0
          0.0064072 0.223966 0 0.00664009 0.225565 0 0.0541382 0.176135 0 0.0524151 0.177439 0
          0.0609055 0.164868 0 -0.0911535 -0.0879938 0 -0.0801918 -0.0929513 0 -0.0867378 -0.100497 0
          0.00148938 0.232722 0 0.000818019 0.233154 0 0.000862602 0.233374 0 0.0593074 -0.0665906 0
          0.0636282 -0.0891705 0 0.0674901 -0.0777892 0 -0.0207424 0.156052 0 -0.0212443 0.150553 0
          -0.0149306 0.151505 0 -0.00052768 0.233303 0 -3.75896e-05 0.233849 0 -0.000748205 0.233023 0
          0.000774303 -0.233125 0 0.00144639 -0.232689 0 0.000818892 -0.233343 0 -8.28835e-05 -0.233825 0
          -0.000573157 -0.233284 0 -0.000792788 -0.233002 0 -0.0574252 0.0809785 0 -0.0647014 0.082949 0
          -0.0565159 0.0633244 0 0.0987187 0.0198441 0 0.103293 0.00166132 0 0.107021 0.0168195 0