<?xml version="1.0"?>
<VTKFile type="PolyData" version="0.1" byte_order="LittleEndian">
  <PolyData>
    <Piece NumberOfLines="100" NumberOfPoints="101">
      <PointData Scalars="pressure">
        <DataArray type="Float32" Name="pressure" NumberOfComponents="1" format="ascii">
          0.1 0.1 0.1 0.1 0.1 0.1 0.1 0.1 0.1 0.1 0.1 0.1
          0.1 0.1 0.1 0.1 0.1 0.1 0.1 0.1 0.1 0.1 0.1 0.1
          0.1 0.1 0.1 0.1 0.1 0.1 0.1 0.1 0.1 0.1 0.1 0.1
          0.1 0.1 0.1 0.1 0.1 0.1 0.1 0.1 0.1 0.1 0.1 0.1
          0.1 0.1 0.1 0.1 0.1 0.1 0.1 0.1 0.1 0.1 0.1 0.1
          0.1 0.1 0.1 0.1 0.1 0.1 0.1 0.1 0.1 0.1 0.1 0.1
          0.1 0.1 0.1 0.1 0.1 0.1 0.1 0.1 0.1 0.1 0.1 0.1
          0.1 0.1 0.1 0.1 0.1 0.1 0.1 0.1 0.1 0.1 0.1 0.1
          0.1 0.1 0.1 0.1 0.1
        </DataArray>
      </PointData>
      <Points>
        <DataArray type="Float32" Name="Coordinates" NumberOfComponents="3" format="ascii">
          54.7 50 0 54.8 50 0 51.7 50 0 51.8 50 0
          46.1 50 0 46 50 0 53.6 50 0 53.7 50 0
          52.3 50 0 52.4 50 0 52.6 50 0 52.5 50 0
          51.5 50 0 51.6 50 0 53.3 50 0 53.2 50 0
          53.4 50 0 53.5 50 0 49.4 50 0 49.3 50 0
          46.5 50 0 46.4 50 0 54.3 50 0 54.2 50 0
          50.7 50 0 50.8 50 0 54.9 50 0 53.8 50 0
          53.9 50 0 54 50 0 50 50 0 50.1 50 0
          47.2 50 0 47.1 50 0 45.1 50 0 45 50 0
          51.1 50 0 51.2 50 0 48.1 50 0 48 50 0
          47.9 50 0 47.8 50 0 49 50 0 48.9 50 0
          52.7 50 0 52.8 50 0 52 50 0 51.9 50 0
          54.1 50 0 45.9 50 0 45.8 50 0 45.7 50 0
          52.9 50 0 53 50 0 52.1 50 0 52.2 50 0
          49.7 50 0 49.8 50 0 47.5 50 0 47.4 50 0
          54.5 50 0 54.4 50 0 54.6 50 0 45.4 50 0
          45.3 50 0 46.9 50 0 46.8 50 0 50.3 50 0
          50.4 50 0 49.9 50 0 47.3 50 0 45.6 50 0
          45.5 50 0 47 50 0 50.2 50 0 45.2 50 0
          48.5 50 0 48.4 50 0 49.6 50 0 49.5 50 0
          50.5 50 0 50.6 50 0 46.7 50 0 46.6 50 0
          48.7 50 0 48.6 50 0 53.1 50 0 48.8 50 0
          47.6 50 0 51.3 50 0 49.1 50 0 51 50 0
          51.4 50 0 49.2 50 0 50.9 50 0 46.3 50 0
          46.2 50 0 47.7 50 0 48.2 50 0 48.3 50 0
          55 50 0
        </DataArray>
      </Points>
      <Lines>
        <DataArray type="Int32" Name="connectivity" NumberOfComponents="1" format="ascii">
          0 1 2 3 4 5 6 7 8 9 10 11
          12 13 14 15 16 17 18 19 20 21 22 23
          24 25 1 26 7 27 28 29 30 31 32 33
          34 35 36 37 38 39 40 41 42 43 44 45
          46 47 28 27 48 23 5 49 50 51 52 53
          54 55 56 57 58 59 60 61 0 62 63 64
          65 66 67 68 69 30 70 32 71 72 33 73
          31 74 75 34 8 55 48 29 76 77 78 79
          80 81 22 61 82 83 84 85 86 53 52 45
          11 9 39 40 54 46 49 50 51 71 47 3
          10 44 87 84 78 56 88 58 62 60 72 63
          86 15 75 64 37 89 66 82 68 80 90 42
          91 36 43 87 89 92 74 67 93 90 94 91
          73 65 95 96 57 69 59 70 41 97 25 94
          98 38 96 4 13 2 17 6 85 76 77 99
          79 18 81 24 83 20 26 100 16 14 99 98
          97 88 19 93 12 92 21 95
        </DataArray>
        <DataArray type="Int32" Name="offsets" NumberOfComponents="1" format="ascii">
          2 4 6 8 10 12 14 16 18 20 22 24
          26 28 30 32 34 36 38 40 42 44 46 48
          50 52 54 56 58 60 62 64 66 68 70 72
          74 76 78 80 82 84 86 88 90 92 94 96
          98 100 102 104 106 108 110 112 114 116 118 120
          122 124 126 128 130 132 134 136 138 140 142 144
          146 148 150 152 154 156 158 160 162 164 166 168
          170 172 174 176 178 180 182 184 186 188 190 192
          194 196 198 200
        </DataArray>
      </Lines>
    </Piece>
  </PolyData>
</VTKFile>
