<?xml version="1.0"?>
<VTKFile type="UnstructuredGrid" version="0.1" byte_order="LittleEndian">
  <UnstructuredGrid>
    <Piece NumberOfCells="6251" NumberOfPoints="18753">
      <PointData Scalars="p">
        <DataArray type="Float32" Name="p" NumberOfComponents="1" format="ascii">
          0.887052 0.886593 0.87386 -1.01056 -1.00878 -1.00347 0.939974 0.931419 0.950412 -0.948952 -0.968417 -0.950528
          -0.00568643 0.0486489 -0.00485657 0.36178 0.417554 0.402993 -0.285249 -0.321095 -0.315675 -0.0510983 -0.02074 -0.0420175
          0.349295 0.352456 0.330103 -0.0546716 -0.000112393 -0.152066 0.304686 0.25488 0.271825 0.769302 0.815436 0.759257
          -0.332474 -0.382311 -0.31963 -0.371973 -0.354736 -0.355346 0.701844 0.646066 0.729893 -1.05186 -1.03968 -1.05201
          0.422743 0.417639 0.43487 -0.180522 -0.168122 -0.168956 0.807863 0.794129 0.761708 -0.90785 -0.884988 -0.872249
          0.875189 0.88118 0.841545 -0.949432 -0.94509 -0.918176 0.840609 0.827624 0.81562 -0.697616 -0.643643 -0.706192
          1.00514 1.01801 1.01495 -0.854166 -0.881727 -0.841767 0.593739 0.571633 0.553353 0.404498 0.417381 0.350141
          0.0585516 0.0441493 0.0610146 0.920606 0.935653 0.92639 -0.377754 -0.354284 -0.419632 -0.242932 -0.19226 -0.252584
          -0.41079 -0.474093 -0.432297 0.91901 0.944942 0.917455 -0.999256 -1.0089 -0.992075 0.598048 0.55047 0.606158
          -0.295154 -0.280998 -0.344634 0.675585 0.645387 0.647774 0.679757 0.622132 0.693909 -0.668992 -0.631303 -0.678204
          0.658256 0.640275 0.663957 -0.873033 -0.884996 -0.914086 -0.600249 -0.526771 -0.568821 -0.355519 -0.415466 -0.358981
          0.350745 0.336144 0.325638 0.476919 0.415432 0.447802 0.0500149 0.0422701 0.0354893 0.682886 0.650414 0.665904
          -0.749245 -0.793087 -0.733167 0.225146 0.20204 0.25232 -0.579428 -0.631328 -0.613005 0.296886 0.250481 0.378585
          0.404004 0.415591 0.458876 -0.249852 -0.183745 -0.273466 0.0299067 -0.000207754 0.000160814 -0.249878 -0.30463 -0.252138
          -0.0533345 -0.000109349 0.000112369 0.675705 0.631844 0.644457 0.303138 0.33611 0.385748 0.16588 0.143562 0.179148
          0.645189 0.640309 0.658258 0.665911 0.648812 0.676092 0.115482 0.183661 0.138938 -0.587978 -0.621437 -0.575275
          -0.630802 -0.621414 -0.68524 -1.00173 -1.01054 -1.00344 -0.0464103 -9.12396e-06 2.77272e-05 0.249865 0.183679 0.226263
          0.395285 0.375732 0.451601 0.375969 0.336117 0.350767 0.0712028 -0.000100934 0.00014171 0.844178 0.827648 0.882091
          -0.615347 -0.643608 -0.58056 -0.404881 -0.363842 -0.360683 -0.385799 -0.363864 -0.448546 -0.851576 -0.838935 -0.808957
          0.706496 0.692685 0.655194 -0.985867 -0.945463 -0.99282 0.071414 -0.000109625 0.0723841 -1.00024 -0.999259 -0.988259
          -0.788759 -0.838717 -0.780097 0.637734 0.586888 0.605671 -0.113194 -0.143956 -0.0386652 1.01615 1.00008 1.01146
          0.415376 0.375977 0.350752 -0.0851959 -0.000172562 -0.0442907 0.839177 0.793771 0.825926 -0.839117 -0.793474 -0.824336
          0.956464 0.932907 0.96441 -0.822261 -0.790967 -0.825838 -0.722906 -0.674204 -0.737323 -0.702079 -0.674131 -0.665801
          0.0371002 0.0654852 0.072305 -0.208136 -0.192341 -0.242884 -0.533524 -0.529927 -0.463042 -0.470301 -0.415318 -0.410442
          -0.355902 -0.385342 -0.297235 0.715626 0.72179 0.678856 0.347291 0.300285 0.371159 0.600647 0.526702 0.580549
          -0.407024 -0.423876 -0.459081 -0.795853 -0.838777 -0.788758 0.0438969 -0.000277894 0.0856465 0.27651 0.300463 0.232623
          0.116124 0.0931376 0.046411 0.793814 0.793791 0.760192 -0.576071 -0.62149 -0.58796 -0.125919 -0.191937 -0.174764
          -0.707025 -0.762399 -0.706055 0.0254281 0.0479045 -0.0022844 0.485673 0.417365 0.449933 0.979285 1.00057 0.99023
          0.55046 0.607662 0.569347 0.428251 0.443128 0.406868 -0.20346 -0.192106 -0.134661 -0.227754 -0.229999 -0.14708
          -0.567309 -0.626282 -0.5548 -0.630141 -0.621602 -0.597588 -0.906381 -0.932948 -0.891908 -0.933079 -0.942107 -0.902181
          -0.707993 -0.760908 -0.695272 -0.365313 -0.389807 -0.270877 -0.827892 -0.838633 -0.872858 -0.88597 -0.897736 -0.835867
          0.730317 0.718217 0.793279 1.00545 0.99922 0.999941 0.592175 0.656469 0.560237 0.400996 0.383381 0.319978
          0.249212 0.300649 0.285305 -0.722644 -0.788655 -0.772361 0.82184 0.847892 0.867408 0.998448 1.00806 1.0019
          -0.168952 -0.168092 -0.150155 -0.790995 -0.823411 -0.775091 -0.15309 -0.168176 -0.1744 -0.532895 -0.550565 -0.472128
          0.879717 0.886235 0.908755 -0.767652 -0.793597 -0.707876 -0.837588 -0.814734 -0.832065 0.0342141 0.0440326 0.0164996
          -0.060469 -0.0716263 -0.0510983 -0.147109 -0.229999 -0.14844 -0.86087 -0.875813 -0.87113 0.504847 0.39086 0.56617
          -0.0425805 -0.000118641 8.62796e-05 -0.99561 -0.989233 -1.01657 0.406808 0.375777 0.359621 1.05201 1.05788 1.04724
          -0.598218 -0.428457 -0.579108 -1.0478 -1.05777 -1.05201 -0.990575 -0.915576 -0.981747 0.773844 0.81062 0.752733
          -0.79696 -0.767309 -0.808992 -0.623614 -0.674129 -0.658441 -0.809693 -0.822417 -0.826236 0.864653 0.887877 0.875508
          -0.318933 -0.363834 -0.320122 0.135153 2.94087e-05 0.0451633 0.0464419 1.23764e-05 0.0465661 -0.320119 -0.363836 -0.33137
          -0.760735 -0.737305 -0.727105 -0.614098 -0.644994 -0.64791 -0.26664 -0.351622 -0.309961 -0.481588 -0.517048 -0.523555
          0.392965 0.351718 0.352802 0.404958 0.364079 0.448603 0.732022 0.729609 0.706253 -0.137516 -0.181857 -0.18381
          0.0465703 7.77807e-07 0.0233231 -0.908237 -0.959038 -0.881745 0.481577 0.517191 0.439153 0.227771 0.181886 0.183884
          0.428341 0.364011 0.407761 0.636407 0.674057 0.665843 0.722964 0.674074 0.707981 0.85406 0.881014 0.861638
          0.364519 0.298808 0.368566 0.684666 0.668223 0.652857 0.764185 0.718793 0.711321 0.147956 0.108324 0.122879
          0.149694 0.166999 0.105501 -0.967783 -0.989229 -0.965697 0.0900888 4.90034e-05 0.135131 1.05117 1.05792 1.04903
          0.266601 0.179403 0.223637 0.956843 0.941414 0.976304 -0.025153 -0.000163069 5.24998e-05 -0.851637 -0.891256 -0.829492
          0.806372 0.771195 0.78883 -0.933127 -0.958642 -0.972931 0.866049 0.849304 0.837156 -0.877069 -0.849461 -0.886791
          0.00267923 -0.000198552 0.000101137 0.0346297 0.12269 0.0393177 0.873534 0.84793 0.878512 1.01776 1.00614 1.02664
          0.95452 0.957664 0.96695 0.440321 0.489891 0.463345 0.867574 0.827711 0.840599 0.830739 0.874768 0.815232
          -0.198501 -0.169624 -0.238907 -0.884493 -0.875468 -0.918204 -0.835735 -0.793199 -0.827933 -0.990965 -0.998675 -0.974699
          0.652737 0.6682 0.686734 0.997494 0.958304 0.988153 -0.783489 -0.767105 -0.755933 -0.752343 -0.791304 -0.774689
          -0.570109 -0.567224 -0.610807 -0.966121 -0.957654 -0.98017 0.748074 0.794087 0.733888 0.225734 0.298764 0.221568
          0.90334 0.928053 0.891543 1.00587 1.00464 0.993442 1.04902 1.04363 1.04348 0.890033 0.876045 0.884302
          0.566528 0.511052 0.533029 0.86756 0.89317 0.885552 0.640653 0.692573 0.624818 0.971548 0.968058 0.963484
          0.946452 0.946173 0.93803 -0.991865 -0.969066 -0.999676 -0.946194 -0.945806 -0.961242 -0.042133 -0.0205217 -0.032636
          0.0299396 0.0519571 0.051321 0.30068 0.352306 0.319696 0.478253 0.510993 0.472057 -0.343171 -0.382233 -0.332529
          -0.524911 -0.572135 -0.533633 0.221768 0.254868 0.159523 0.193738 0.194737 0.128977 -1.04612 -1.03965 -1.05188
          -1.05215 -1.05746 -1.05206 -0.339891 -0.281188 -0.30798 -0.259107 -0.217342 -0.241519 -0.494621 -0.474144 -0.559759
          -0.64105 -0.717985 -0.661551 0.298237 0.284627 0.350067 0.37201 0.352349 0.413641 -0.241432 -0.264761 -0.259305
          -0.293832 -0.281151 -0.279571 0.943704 0.935807 0.916233 0.836717 0.794126 0.843475 -0.946192 -0.936075 -0.935278
          -0.908671 -0.884952 -0.907871 0.92293 0.93597 0.925339 0.90934 0.910292 0.89301 -0.979913 -0.968563 -0.981726
          -0.943833 -0.935262 -0.95067 0.980698 0.993623 0.994298 0.918092 0.930643 0.882122 -0.533588 -0.494152 -0.524994
          -0.429639 -0.382213 -0.448845 -0.9129 -0.935451 -0.933785 -0.967098 -0.968448 -0.952459 0.588526 0.55059 0.598004
          0.501647 0.437949 0.505762 0.444863 0.475901 0.389643 0.502733 0.555642 0.485678 0.0838913 0.0521419 0.0660182
          -0.009128 -0.0209341 0.0124009 -0.239491 -0.227863 -0.31046 -0.322811 -0.354055 -0.288374 -0.165331 -0.156153 -0.19532
          -0.11237 -0.0634212 -0.174474 0.959563 0.969006 0.953111 0.981286 0.990247 0.963482 -0.715408 -0.640867 -0.68128
          -0.539247 -0.47411 -0.485268 0.642163 0.582643 0.654383 0.0566305 0.0420054 0.0656724 0.0292007 2.19323e-05 0.0320087
          0.780242 0.727723 0.745833 0.619078 0.600463 0.585299 -0.594754 -0.539036 -0.592134 -0.612986 -0.631369 -0.645856
          0.74356 0.775943 0.716263 0.76228 0.773808 0.74478 -0.748321 -0.773428 -0.77966 -0.756722 -0.721255 -0.759883
          -0.73876 -0.788678 -0.722632 -0.686402 -0.718329 -0.644656 -0.464562 -0.435085 -0.541373 -0.558772 -0.526889 -0.631733
          -0.376325 -0.387412 -0.31323 -0.458158 -0.526057 -0.404226 0.511748 0.49148 0.475986 0.425971 0.434565 0.410156
          0.122705 0.108721 0.0944172 0.0602069 0.0484128 0.0568772 -0.756961 -0.779076 -0.795986 -0.818452 -0.854974 -0.825623
          0.148178 0.102119 0.152741 0.135695 0.11722 0.166804 0.0347187 0.000175837 0.0706267 0.316848 0.284254 0.360266
          0.209388 0.186067 0.246325 -0.178367 -0.0899674 -0.136685 0.11441 0.183613 0.092084 0.0790362 0.0571607 0.0637327
          0.0497469 0.00011351 0.056253 -0.1254 -0.185621 -0.0848923 -0.0468956 0.00075177 -0.084772 0.332421 0.30494 0.30406
          -0.209476 -0.169736 -0.164163 -0.0393934 0.000127756 -0.0775766 0.757016 0.721836 0.771891 0.656737 0.589501 0.679095
          0.261438 0.236831 0.250352 0.28816 0.283935 0.298878 0.0331236 0.0627906 0.10135 0.113998 0.10213 0.141931
          0.527492 0.514921 0.578511 0.533047 0.529325 0.568753 0.682737 0.650309 0.71628 0.593434 0.535454 0.648739
          -0.326925 -0.311828 -0.354829 -0.52103 -0.56524 -0.547172 -0.508829 -0.48723 -0.554158 -0.477102 -0.423698 -0.494446
          0.10401 0.136215 0.0658306 0.0936382 0.117176 0.0560008 -0.979428 -1.00033 -0.989773 -1.0057 -0.999035 -1.0096
          -0.0699978 -0.0932645 -5.43019e-05 -0.0232396 -5.46132e-05 0.0231019 0.162625 0.0931646 0.185544 0.184747 0.183637 0.276477
          0.0208439 0.094108 0.10106 0.228122 0.218074 0.296558 0.218019 0.17056 0.254521 0.14714 0.124051 0.205997
          0.707474 0.71379 0.738051 0.685377 0.692787 0.706549 -0.589308 -0.648072 -0.590649 -0.752798 -0.746137 -0.803393
          -0.428889 -0.449896 -0.364743 -0.383971 -0.3612 -0.319991 -0.320733 -0.276356 -0.343028 -0.208614 -0.0933152 -0.162586
          -0.91794 -0.900581 -0.872904 -0.802833 -0.788572 -0.754255 0.786913 0.771038 0.82322 0.714414 0.692588 0.747813
          -0.915813 -0.87518 -0.91135 -0.947892 -0.944149 -0.978655 0.0759189 -6.07569e-05 0.0771399 0.633075 0.600416 0.619124
          0.584856 0.529083 0.600417 -0.758392 -0.762562 -0.808911 -0.812838 -0.860792 -0.808869 0.542325 0.492931 0.505686
          0.379148 0.341458 0.395606 0.996159 0.985759 1.0051 0.450341 0.434596 0.425938 0.32742 0.266553 0.303032
          0.000413767 0.0796577 0.0413196 0.182065 0.236967 0.206021 0.707529 0.607869 0.639881 0.639936 0.670893 0.707454
          -0.301614 -0.30475 -0.24605 -0.2004 -0.202468 -0.102157 -0.714981 -0.721315 -0.75077 -0.793538 -0.793454 -0.825808
          0.874069 0.84228 0.892032 -0.675966 -0.607784 -0.659429 -0.511031 -0.449892 -0.490751 -0.859456 -0.849343 -0.82263
          -0.783301 -0.739622 -0.798137 -0.0686673 -0.0724875 -0.134605 -0.0400456 -0.00454837 -0.077223 -0.525529 -0.517689 -0.467996
          -0.421849 -0.384427 -0.450993 0.282178 0.218371 0.274192 0.285382 0.300508 0.322138 0.406216 0.361292 0.445925
          0.458223 0.434545 0.474667 -0.950302 -0.976112 -0.96171 -0.939404 -0.932775 -0.900258 -0.205041 -0.237181 -0.124488
          -0.158154 -0.0799073 -0.124344 0.88368 0.874239 0.845992 0.760028 0.737122 0.697283 -0.59599 -0.60378 -0.562542
          -0.637709 -0.668466 -0.570332 0.463724 0.443322 0.448053 0.357716 0.300647 0.344012 0.989656 1.00049 0.979363
          0.947695 0.943564 0.91117 0.876944 0.8493 0.866054 0.783171 0.739906 0.793922 -0.596897 -0.626464 -0.615514
          -0.665494 -0.700708 -0.63361 0.179835 0.16701 0.232655 0.113862 0.0579522 0.105695 0.537426 0.513119 0.490577
          0.499306 0.515308 0.463737 -0.0682784 -0.0717688 -0.060422 -0.0244928 -0.000507569 -0.0332152 -0.27601 -0.334256 -0.26214
          -0.368753 -0.423692 -0.354593 -0.460627 -0.524013 -0.453218 -0.409742 -0.367102 -0.374073 0.948432 0.925024 0.957129
          0.924541 0.903263 0.919893 -0.725612 -0.746231 -0.685299 -0.803431 -0.758178 -0.752771 -0.916356 -0.891268 -0.944811
          -0.858776 -0.822951 -0.829698 -0.568891 -0.564878 -0.527082 -0.667211 -0.617492 -0.735518 -0.685557 -0.750081 -0.735353
          -0.970823 -0.967233 -0.956734 0.51216 0.489943 0.543647 0.667149 0.718028 0.688939 0.506097 0.590607 0.541027
          0.67971 0.70097 0.711296 0.314851 0.37835 0.344083 0.420929 0.445391 0.42992 -1.00689 -1.01485 -1.00975
          -1.00647 -1.00022 -0.978857 0.635124 0.654341 0.690968 0.752403 0.793001 0.777041 1.00854 1.0147 1.01423
          1.00649 1.00042 0.997717 -0.124474 -0.159593 -0.129415 -0.176882 -0.194605 -0.210334 1.03651 1.04376 1.02324
          1.03002 1.02901 1.01281 -0.129535 -0.157505 -0.077688 -0.124741 -0.16964 -0.0867777 -0.140744 -0.0973376 -0.136644
          -0.0935594 -0.0717593 -0.0886343 -0.689225 -0.670976 -0.614216 -0.603221 -0.62639 -0.567254 0.891492 0.852451 0.87192
          0.736814 0.721804 0.715613 -0.891047 -0.852401 -0.906835 -0.844534 -0.833458 -0.81568 0.00457577 0.0114439 0.024794
          0.0463203 0.0422222 0.0565457 -0.0846784 -0.0994525 -0.0625828 -0.102324 -0.117153 -0.0935986 -0.309509 -0.392126 -0.310922
          -0.463804 -0.531902 -0.460533 -0.889528 -0.910316 -0.893235 -0.920601 -0.935259 -0.912714 0.244142 0.1462 0.270766
          0.365479 0.390309 0.441662 -0.145012 -0.146146 -0.0724408 -0.0713739 -7.88414e-05 -0.0866121 0.816926 0.755432 0.835688
          -0.734402 -0.685853 -0.697818 -1.02856 -1.02134 -1.01139 -1.01621 -1.00021 -1.01699 -0.746683 -0.755284 -0.693922
          -0.679776 -0.622083 -0.675211 -1.02298 -1.00701 -1.00094 -0.961723 -0.942093 -0.933085 0.336073 0.257104 0.31875
          0.166491 0.0940633 0.158082 1.04459 1.02145 1.04886 1.02428 1.03197 1.04915 0.756876 0.685637 0.758895
          0.68554 0.701603 0.759729 0.819445 0.84133 0.826812 0.845479 0.84674 0.827076 -0.628142 -0.656172 -0.665761
          -0.748648 -0.76716 -0.780768 -0.486974 -0.528981 -0.448552 -0.549179 -0.56938 -0.490848 -0.138818 -0.185302 -0.0931003
          -0.208305 -0.23129 -0.139641 -0.315729 -0.356568 -0.360657 -0.400598 -0.444349 -0.360761 -0.811665 -0.793346 -0.780818
          -0.810717 -0.8495 -0.798161 0.229995 0.185383 0.275942 0.116361 0.0466827 0.139621 0.046014 1.56277e-05 3.23234e-05
          -0.13607 -0.181862 -0.091397 0.692038 0.656139 0.665801 0.557724 0.517047 0.523629 0.400683 0.356585 0.360741
          0.22535 0.181952 0.270618 0.48707 0.528976 0.523658 0.625343 0.607782 0.676123 0.811552 0.793434 0.841446
          0.8593 0.849372 0.886713 0.346974 0.280127 0.319263 0.174768 0.136258 0.141642 0.742297 0.701037 0.686764
          0.62375 0.590524 0.647463 -0.956585 -0.982997 -0.988615 -1.02969 -1.03944 -1.03896 -0.0229042 0.0629623 0.0316413
          0.192358 0.254934 0.193781 -0.833619 -0.849497 -0.832231 -0.852133 -0.846643 -0.847552 -0.0464186 -0.000164808 0.000141918
          -0.00821297 -0.000234155 0.000223476 0.760072 0.722488 0.788655 0.709404 0.654357 0.689057 0.942769 0.930675 0.972356
          0.93631 0.964087 0.950259 -0.413848 -0.485651 -0.439068 -0.907088 -0.938366 -0.920388 0.922836 0.938517 0.951037
          0.971387 0.967483 0.984481 0.809976 0.759002 0.79622 0.74321 0.714166 0.744698 1.02767 1.02109 1.01551
          0.729416 0.72208 0.675387 0.150069 0.156363 0.0794861 -0.771796 -0.721675 -0.761035 -0.641937 -0.582834 -0.629333
          -1.02873 -1.02152 -1.01521 -0.996576 -0.986236 -0.986216 0.545884 0.526104 0.572451 0.538316 0.492769 0.564744
          -0.845416 -0.841258 -0.826446 -0.83362 -0.823087 -0.848241 0.959964 0.99228 0.977715 1.03136 1.04351 1.05382
          -0.440341 -0.44698 -0.508301 -0.515466 -0.494052 -0.556609 -0.896846 -0.887115 -0.925651 -0.943713 -0.935991 -0.955092
          0.855274 0.887787 0.84355 0.908182 0.935712 0.914617 0.36769 0.437981 0.368581 0.557251 0.550549 0.496901
          0.879214 0.91076 0.903359 0.905481 0.920669 0.92623 1.0287 1.018 1.01427 1.01501 0.988616 1.00511
          0.856678 0.849082 0.8648 0.83383 0.821911 0.826631 0.618697 0.612569 0.564311 0.486836 0.47601 0.455286
          0.851299 0.881513 0.890215 0.934133 0.941264 0.956959 0.760158 0.80004 0.747856 0.754358 0.770957 0.758277
          0.935503 0.931463 0.914448 0.957337 0.961526 0.944807 -0.998555 -0.99733 -1.00785 -1.00446 -1.00873 -1.01418
          0.937919 0.926539 0.946747 0.929895 0.93141 0.939934 -0.966942 -0.985438 -0.961342 -0.999736 -0.96902 -0.978201
          -0.0850407 -0.0469396 -0.136598 -0.0194139 0.00651612 -0.00227834 0.335899 0.389604 0.350303 0.413864 0.444786 0.389824
          -0.222372 -0.254951 -0.178599 -0.304721 -0.355403 -0.321986 -0.0273754 -0.00738945 -0.0217977 0.0027629 0.0157587 -0.0132551
          0.439199 0.43258 0.37921 0.403252 0.352277 0.392223 0.0959196 0.12897 0.0316662 0.256461 0.319937 0.25773
          0.4332 0.418173 0.353531 0.33716 0.254897 0.304685 -1.05203 -1.05542 -1.0428 -1.05587 -1.05758 -1.04931
          -0.248112 -0.304902 -0.28373 -0.358252 -0.400207 -0.304554 -0.406036 -0.39736 -0.460808 -0.340084 -0.329484 -0.397177
          -0.62169 -0.601986 -0.681325 -0.495691 -0.440335 -0.56009 -1.04654 -1.0361 -1.04394 -1.0284 -1.01871 -1.03909
          0.251959 0.307019 0.28405 0.298098 0.350376 0.307282 -0.214767 -0.217547 -0.189347 -0.279585 -0.281034 -0.249565
          0.882193 0.875936 0.843597 0.897661 0.914507 0.886739 -0.950508 -0.931557 -0.948998 -0.935185 -0.914014 -0.931502
          0.910778 0.917765 0.886723 0.898519 0.881047 0.9003 -0.993151 -0.99042 -1.00342 -0.977075 -0.962929 -0.96691
          0.903992 0.872298 0.885558 0.888849 0.904856 0.852221 -0.595739 -0.572107 -0.633632 -0.465897 -0.437882 -0.477391
          0.957614 0.949173 0.980756 1.00623 1.01795 0.994356 -0.875393 -0.887499 -0.864235 -0.886099 -0.881854 -0.861203
          0.695871 0.659956 0.729908 0.612565 0.563414 0.618244 0.152039 0.110505 0.132333 0.0472635 0.0441683 0.058542
          0.875459 0.88797 0.884269 0.899798 0.898933 0.913127 -0.287398 -0.310536 -0.303855 -0.331962 -0.354546 -0.329839
          -0.225997 -0.219642 -0.255729 -0.187164 -0.174757 -0.219571 -0.257279 -0.300269 -0.346229 -0.388408 -0.474166 -0.410765
          0.941858 0.945998 0.92615 0.9464 0.944691 0.927622 0.675107 0.6221 0.643507 0.566502 0.533094 0.622158
          -0.190721 -0.187475 -0.214962 -0.206736 -0.222202 -0.235131 -0.814402 -0.785882 -0.849624 -0.715327 -0.681471 -0.7861
          0.665097 0.604156 0.67529 0.0911748 0.104415 0.0700296 0.050265 0.0259368 0.0568817 0.718354 0.669141 0.733872
          0.653289 0.637132 0.600614 -0.686879 -0.653487 -0.716054 -0.595135 -0.591715 -0.645914 0.733215 0.710554 0.721676
          0.743531 0.716315 0.710511 -0.808249 -0.833448 -0.835808 -0.803944 -0.815691 -0.833448 -0.668651 -0.651216 -0.61086
          -0.722387 -0.756114 -0.651604 -0.611528 -0.588932 -0.678374 -0.512728 -0.482046 -0.588906 -0.224383 -0.283122 -0.23324
          -0.410388 -0.415457 -0.35041 0.45874 0.423243 0.404069 0.402284 0.415367 0.364269 0.579777 0.526758 0.644472
          0.511595 0.458758 0.526879 0.12654 0.0940282 0.104479 0.0865743 0.0722248 0.0657563 0.792171 0.806596 0.762392
          0.675673 0.644462 0.714808 -0.68996 -0.730113 -0.629311 -0.763466 -0.793108 -0.749256 0.200443 0.186147 0.209355
          0.17737 0.202352 0.198011 -0.439772 -0.490738 -0.414782 -0.464698 -0.541176 -0.490733 0.179466 0.209883 0.187194
          0.198616 0.182333 0.207205 -0.302277 -0.266711 -0.385917 -0.225989 -0.183747 -0.249844 0.132013 0.0953061 0.149997
          0.0816124 0.0450624 0.0950755 -0.101673 -0.0622626 -0.0335332 -0.0291979 0.000314017 0.0284963 -0.240389 -0.297147 -0.246023
          -0.35547 -0.359095 -0.297261 0.303646 0.252816 0.297772 -0.119964 -0.0812469 -0.0775994 -0.0839159 -0.086566 -0.0425548
          0.804195 0.773857 0.806666 0.715567 0.678923 0.706341 0.229998 0.286467 0.254465 0.275056 0.263106 0.288062
          -0.0719672 8.79041e-05 -0.0384619 0.0718973 0.14366 0.11369 0.475497 0.53548 0.477094 0.588825 0.640344 0.645225
          -0.0689253 -9.13666e-05 -0.0922659 -0.000108169 0.0455024 0.0920072 -0.508034 -0.528736 -0.554298 -0.474916 -0.45399 -0.510844
          -0.468606 -0.524283 -0.527687 -0.508747 -0.554329 -0.541847 0.445169 0.415162 0.464766 0.379126 0.384993 0.402465
          0.148406 0.145515 0.0745656 0.106859 0.0705552 0.0712255 -0.11635 -0.0467092 -0.0930715 0.0465778 0.0931466 0.023328
          0.320902 0.276489 0.319428 0.185542 0.184747 0.27648 0.247599 0.237954 0.318637 0.166554 0.157944 0.23798
          0.222672 0.266451 0.226312 0.217992 0.254542 0.266462 0.131747 0.0659462 0.136142 0.0615322 0.0563768 0.0300558
          0.76733 0.772317 0.796139 0.758249 0.771019 0.774121 -0.468759 -0.52811 -0.464259 -0.589317 -0.649751 -0.586796
          -0.469682 -0.407728 -0.448461 -0.386267 -0.364649 -0.343017 -0.3646 -0.320958 -0.342611 -0.253826 -0.185579 -0.208566
          -0.968218 -0.93291 -0.974871 -0.887697 -0.838944 -0.900396 0.7688 0.73558 0.747872 0.743102 0.744408 0.714646
          -0.917902 -0.950941 -0.949573 -0.915685 -0.911615 -0.951239 0.0783872 -4.35078e-05 0.0793746 0.684273 0.637059 0.702169
          0.619219 0.568686 0.63698 -1.01271 -1.00901 -1.00972 -0.996915 -0.978373 -0.986055 -0.706241 -0.750117 -0.697572
          -0.758432 -0.80882 -0.750088 0.666274 0.634223 0.676515 0.611805 0.586864 0.65113 -0.25048 -0.262993 -0.189166
          -0.27366 -0.283318 -0.214137 1.01102 0.997795 1.01535 0.453595 0.415479 0.439845 0.425884 0.385908 0.415474
          -0.0383683 -0.0799943 -0.113327 -0.0410041 -0.000401281 -0.124441 0.754593 0.739783 0.798098 0.737818 0.793977 0.73986
          -0.192198 -0.197287 -0.14628 -0.249819 -0.252277 -0.197181 -0.783757 -0.790996 -0.815665 -0.75671 -0.759901 -0.790976
          0.877994 0.903148 0.878523 0.919739 0.93322 0.924793 -0.707752 -0.739532 -0.767727 -0.658514 -0.674013 -0.708012
          -0.781495 -0.768885 -0.737256 -0.754598 -0.739496 -0.708015 -0.0359271 -0.0776053 0.0794057 -0.07557 -0.0724076 -0.0400601
          -0.00521169 -0.0632411 -0.00548132 -0.068802 -0.134338 -0.0629819 -0.686266 -0.668478 -0.637686 -0.599771 -0.529549 -0.570435
          -0.447086 -0.416087 -0.415889 -0.358524 -0.304733 -0.359776 -0.504548 -0.468126 -0.47685 -0.427316 -0.38509 -0.403205
          0.852947 0.816436 0.833317 0.804083 0.791087 0.771817 0.320739 0.341357 0.359645 0.274198 0.266284 0.32253
          0.407603 0.449939 0.407776 0.489576 0.526639 0.56889 -0.252692 -0.311551 -0.242722 -0.323149 -0.382275 -0.311569
          -0.860419 -0.86102 -0.812545 -0.903262 -0.900224 -0.86082 -0.253448 -0.170657 -0.218385 -0.205139 -0.124269 -0.170715
          0.805312 0.781825 0.763717 0.830972 0.81473 0.782301 -0.528354 -0.533898 -0.496616 -0.568812 -0.570299 -0.533746
          0.411674 0.413147 0.395642 0.428155 0.371416 0.413188 0.298514 0.231412 0.321069 0.208371 0.139649 0.231374
          0.949074 0.950468 0.917232 0.97916 0.978044 0.950695 0.915827 0.881101 0.906944 0.866049 0.824368 0.88118
          -0.526174 -0.565528 -0.510755 -0.615538 -0.633341 -0.597948 -0.142384 -0.213873 -0.134484 -0.223017 -0.289975 -0.214097
          -0.703986 -0.758152 -0.706869 -0.808491 -0.812336 -0.758126 0.168145 0.133268 0.123388 0.0926236 0.0483307 0.051152
          0.582318 0.555657 0.624797 0.467779 0.417342 0.485679 -0.0270942 -0.0324827 -0.0139444 -0.0407449 -0.0247196 -0.0328444
          0.970055 0.990342 0.984836 1.00154 1.01044 0.997872 0.434498 0.445641 0.423313 0.481623 0.482557 0.447974
          -0.460551 -0.380817 -0.386721 -0.475303 -0.504382 -0.43587 0.978866 0.977401 0.993485 0.962396 0.944207 0.977557
          -0.606629 -0.598853 -0.577076 -0.625548 -0.650999 -0.615322 -0.731697 -0.70087 -0.695543 -0.662419 -0.621547 -0.630145
          -0.96782 -0.975944 -0.940222 -0.955472 -0.932936 -0.920536 -0.983914 -0.97626 -0.965679 -0.977695 -0.978379 -0.961633
          -0.825081 -0.807566 -0.760725 -0.785242 -0.760985 -0.72009 -0.483414 -0.479627 -0.43909 -0.643486 -0.715235 -0.700639
          -0.667259 -0.735431 -0.725561 -0.939206 -0.936878 -0.920468 0.633804 0.61248 0.689044 0.52928 0.441601 0.504994
          0.997484 0.995203 1.00621 0.999573 0.999425 1.00923 0.225479 0.251659 0.1908 0.315008 0.343733 0.251465
          -0.996967 -0.994973 -0.980282 -1.00672 -1.01006 -0.99547 0.741796 0.760552 0.788642 0.726168 0.689101 0.752506
          0.998191 0.997325 0.980938 1.00509 1.00817 0.994018 -0.14867 -0.168076 -0.13198 -0.192243 -0.217356 -0.193008
          1.00286 1.0129 0.977879 1.03688 1.05405 1.03043 -0.148977 -0.103505 -0.0962745 -0.129454 -0.0778323 -0.10357
          -0.775625 -0.706019 -0.748105 -0.689244 -0.614174 -0.706038 -0.915474 -0.881112 -0.902707 -0.868014 -0.826003 -0.8812
          -0.0544131 -0.0627937 -0.0512335 -0.075142 -0.0883934 -0.0682209 -0.219732 -0.224553 -0.136495 -0.309415 -0.311117 -0.224674
          -0.851984 -0.869314 -0.840827 -0.876171 -0.876005 -0.864721 0.313052 0.340296 0.389653 0.244158 0.270744 0.340279
          0.0731431 -1.43835e-05 0.0733931 -0.214468 -0.143164 -0.227551 -0.144988 -0.0724908 -0.143104 0.77425 0.707951 0.791889
          0.853229 0.872548 0.891247 0.817 0.835534 0.872626 -0.638982 -0.578166 -0.586705 -0.806578 -0.784076 -0.847971
          -0.733867 -0.698982 -0.783957 -1.04139 -1.0311 -1.0384 -1.02836 -1.01182 -1.03116 -0.784952 -0.735123 -0.780583
          -0.746702 -0.69388 -0.735086 -0.774244 -0.791889 -0.707949 -0.172669 -0.198886 -0.0734665 0.431095 0.414049 0.490515
          0.336128 0.318639 0.414017 1.05191 1.05546 1.05158 1.05607 1.05735 1.05363 0.999015 0.973799 0.981166
          0.812687 0.806841 0.840546 0.807099 0.814314 0.832498 0.63804 0.586675 0.577003 0.783255 0.797229 0.756194
          0.819289 0.827136 0.797119 -0.66591 -0.727273 -0.702022 -0.69206 -0.715611 -0.72706 -0.557655 -0.597773 -0.523701
          -0.628077 -0.665893 -0.59783 -0.52365 -0.444397 -0.48154 -0.487 -0.448491 -0.4443 -0.183835 -0.0923776 -0.137501
          -0.138823 -0.0930815 -0.0923375 -0.227706 -0.273591 -0.183878 -0.315698 -0.360717 -0.273637 -0.396132 -0.43439 -0.438974
          -0.579433 -0.645641 -0.546487 0.183926 0.273642 0.227755 0.230011 0.275915 0.273638 0.137549 0.0924193 0.183883
          0.0460132 4.08391e-05 0.0923776 0.861301 0.846279 0.863978 0.852229 0.847585 0.846654 0.665945 0.59781 0.636358
          0.628139 0.589679 0.597715 0.439053 0.44436 0.481627 0.400651 0.360819 0.444409 0.748571 0.727275 0.780933
          0.691973 0.665952 0.727205 0.797108 0.826112 0.808917 0.841613 0.881133 0.853996 0.466036 0.415671 0.475054
          0.294647 0.298943 0.360004 0.829646 0.779626 0.821874 0.724814 0.66822 0.716144 -0.886729 -0.92815 -0.871709
          -0.960696 -0.989232 -0.967795 -0.162258 -0.109043 -0.157298 -0.0228964 0.0316182 -0.109038 -0.814071 -0.807601 -0.76655
          -0.807229 -0.814731 -0.760286 0.910416 0.924842 0.929744 0.903595 0.913969 0.924804 -0.13811 -0.088606 -0.141192
          -0.0425177 -4.27641e-05 -0.0519677 -0.024399 -0.0108671 -0.0119031 -0.00279676 2.3526e-05 0.00266513 0.761312 0.793746 0.809275
          0.760055 0.788696 0.793887 0.917182 0.953111 0.9408 0.981911 1.00616 1.00182 -0.313108 -0.340213 -0.217299
          -0.413827 -0.439108 -0.340243 -0.853121 -0.872698 -0.797131 -0.907027 -0.920521 -0.872609 0.869912 0.904544 0.864974
          0.932861 0.95771 0.925978 0.868732 0.85859 0.909141 0.809976 0.796234 0.858668 0.858309 0.891283 0.846453
          0.919174 0.917081 0.890905 1.0413 1.0306 1.04211 1.02772 1.01541 1.0307 0.784939 0.735165 0.796995
          0.729433 0.675358 0.735027 0.214485 0.142981 0.217188 0.150113 0.0793999 0.142987 -0.826539 -0.819137 -0.864765
          -0.807178 -0.793071 -0.842666 -1.04276 -1.03362 -1.03826 -1.0178 -0.998583 -1.00605 0.507327 0.564585 0.543456
          0.633505 0.668212 0.61832 -0.863649 -0.846147 -0.861119 -0.845239 -0.826779 -0.846641 -0.83541 -0.826144 -0.80871
          -0.841611 -0.793491 -0.811608 0.90083 0.923018 0.868873 0.95988 0.977893 0.923267 -0.359598 -0.431961 -0.387699
          -0.500703 -0.567286 -0.528525 -0.869849 -0.9044 -0.891125 -0.932708 -0.957563 -0.950785 0.826705 0.81957 0.780774
          0.855235 0.843625 0.819692 0.290792 0.295266 0.220829 0.297508 0.298909 0.229678 1.04309 1.03512 1.03795
          1.02862 1.01443 1.03531 0.850911 0.868518 0.878756 0.875963 0.876178 0.892948 0.774762 0.819083 0.77017
          0.851272 0.890257 0.819189 0.723806 0.717705 0.672599 0.760073 0.748034 0.717895 0.979323 0.985926 0.961729
          0.998471 0.994153 0.985861 -0.976919 -0.971693 -0.985234 -0.963666 -0.968464 -0.971672 -0.119274 -0.11771 -0.0774447
          -0.0570058 -0.0383037 -0.0509029 -0.00148859 0.0161048 0.0124828 0.0311046 0.0472438 0.0159979 0.387359 0.37926 0.43251
          0.330871 0.280932 0.44596 -0.448842 -0.51542 -0.429686 -0.543792 -0.572073 -0.524922 0.23941 0.287576 0.205537
          0.36816 0.353544 0.320541 -1.0045 -1.01857 -1.01646 -1.00294 -1.01615 -1.01861 -0.250803 -0.221988 -0.249714