<?xml version="1.0"?>
<VTKFile type="PolyData" version="0.1" byte_order="LittleEndian">
  <PolyData>
    <Piece NumberOfLines="40" NumberOfPoints="80">
      <PointData Scalars="p">
        <DataArray type="Float32" Name="p" NumberOfComponents="1" format="ascii">
          -0.384101 -0.381952 -0.280069 -0.254933 0.3233 0.341 0.376462 0.381951 0.378099 0.369936 -0.376462 -0.381951
          -0.378099 -0.369936 0.103022 0.136082 -0.3233 -0.341 -0.0347062 -9.58039e-07 0.384101 0.381952 -0.10302 -0.0691396
          0.35586 0.341001 0.302927 0.323298 -0.22773 -0.254931 0.22773 0.254931 -0.302927 -0.323298 0.367726 0.355861
          -0.382835 -0.384101 -0.0691377 -0.0347081 0.0691377 0.0347081 0.28007 0.302926 -0.198691 -0.16806 0.382835 0.384101
          0.16806 0.198691 -0.367727 -0.376461 -0.302926 -0.28007 -0.382835 -0.378101 0.382835 0.378101 -0.35586 -0.341001
          9.58042e-07 0.0347062 -0.136082 -0.103022 -0.136084 -0.168058 0.254933 0.280069 0.367727 0.376461 0.0691396 0.10302
          -0.198693 -0.227729 0.198693 0.227729 0.136084 0.168058 -0.367726 -0.355861
        </DataArray>
      </PointData>
      <Points>
        <DataArray type="Float32" Name="Coordinates" NumberOfComponents="3" format="ascii">
          0.5 0.925 0 0.5 0.9 0 0.5 0.725 0 0.5 0.7 0
          0.5 0.225 0 0.5 0.2 0 0.5 0.125 0 0.5 0.1 0
          0.5 0.025 0 0.5 0 0 0.5 0.875 0 0.5 0.9 0
          0.5 0.975 0 0.5 1 0 0.5 0.425 0 0.5 0.4 0
          0.5 0.775 0 0.5 0.8 0 0.5 0.525 0 0.5 0.5 0
          0.5 0.075 0 0.5 0.1 0 0.5 0.575 0 0.5 0.55 0
          0.5 0.175 0 0.5 0.2 0 0.5 0.25 0 0.5 0.225 0
          0.5 0.675 0 0.5 0.7 0 0.5 0.325 0 0.5 0.3 0
          0.5 0.75 0 0.5 0.775 0 0.5 0.15 0 0.5 0.175 0
          0.5 0.95 0 0.5 0.925 0 0.5 0.55 0 0.5 0.525 0
          0.5 0.45 0 0.5 0.475 0 0.5 0.275 0 0.5 0.25 0
          0.5 0.65 0 0.5 0.625 0 0.5 0.05 0 0.5 0.075 0
          0.5 0.375 0 0.5 0.35 0 0.5 0.85 0 0.5 0.875 0
          0.5 0.75 0 0.5 0.725 0 0.5 0.95 0 0.5 0.975 0
          0.5 0.05 0 0.5 0.025 0 0.5 0.825 0 0.5 0.8 0
          0.5 0.5 0 0.5 0.475 0 0.5 0.6 0 0.5 0.575 0
          0.5 0.6 0 0.5 0.625 0 0.5 0.3 0 0.5 0.275 0
          0.5 0.15 0 0.5 0.125 0 0.5 0.45 0 0.5 0.425 0
          0.5 0.65 0 0.5 0.675 0 0.5 0.35 0 0.5 0.325 0
          0.5 0.4 0 0.5 0.375 0 0.5 0.85 0 0.5 0.825 0
        </DataArray>
      </Points>
      <Lines>
        <DataArray type="Int32" Name="connectivity" NumberOfComponents="1" format="ascii">
          0 1 2 3 4 5 6 7 8 9 10 11
          12 13 14 15 16 17 18 19 20 21 22 23
          24 25 26 27 28 29 30 31 32 33 34 35
          36 37 38 39 40 41 42 43 44 45 46 47
          48 49 50 51 52 53 54 55 56 57 58 59
          60 61 62 63 64 65 66 67 68 69 70 71
          72 73 74 75 76 77 78 79
        </DataArray>
        <DataArray type="Int32" Name="offsets" NumberOfComponents="1" format="ascii">
          2 4 6 8 10 12 14 16 18 20 22 24
          26 28 30 32 34 36 38 40 42 44 46 48
          50 52 54 56 58 60 62 64 66 68 70 72
          74 76 78 80
        </DataArray>
      </Lines>
    </Piece>
  </PolyData>
</VTKFile>
